LAMMPS (17 Nov 2016)
# Affiliation: Dept. Materials Science and Engineering
# University of Arizona
# Abduljabar Alsayoud


# Units energy:eV time:ps distance:angstrom flux:energy*velocity
#---------Sim variables---------------
variable fileprefix string  Al101010
variable temp_s equal '300.0'
variable press_s equal '1.0'

#-----------Setup----------------------
units metal            #Energy = eV , Distance= Angstroms
dimension 3
boundary p p p         #Periodic boundary conditions
atom_style atomic

# Read config files

read_data data.${fileprefix}
read_data data.Al101010
  orthogonal box = (-16.1557 -16.1557 -16.1557) to (24.2336 24.2336 24.2336)
  1 by 1 by 1 MPI processor grid
  reading atoms ...
  4000 atoms

pair_style eam/alloy
pair_coeff * *  AlCu.eam.alloy Al
Reading potential file AlCu.eam.alloy with DATE: 2008-10-01
neighbor 2.0 bin
neigh_modify delay 10 check yes


#--------- NPT-------
reset_timestep 0
timestep 0.001

thermo 1000
thermo_style custom step pe ke etotal enthalpy temp vol press
velocity all create ${temp_s} 1518772
velocity all create 300 1518772
fix 1 all npt temp ${temp_s} ${temp_s} 0.5 iso ${press_s} ${press_s} 5
fix 1 all npt temp 300 ${temp_s} 0.5 iso ${press_s} ${press_s} 5
fix 1 all npt temp 300 300 0.5 iso ${press_s} ${press_s} 5
fix 1 all npt temp 300 300 0.5 iso 1 ${press_s} 5
fix 1 all npt temp 300 300 0.5 iso 1 1 5
dump 2 all atom 2000 dump.npt${fileprefix}
dump 2 all atom 2000 dump.nptAl101010
run 60000
Neighbor list info ...
  1 neighbor list requests
  update every 1 steps, delay 10 steps, check yes
  max neighbors/atom: 2000, page size: 100000
  master list distance cutoff = 8.6825
  ghost atom cutoff = 8.6825
  binsize = 4.34125 -> bins = 10 10 10
Memory usage per processor = 4.09116 Mbytes
Step PotEng KinEng TotEng Enthalpy Temp Volume Press 
       0   -13203.173     155.0734     -13048.1   -12856.329          300    65886.855     4663.297 
    1000   -13099.428    153.49198   -12945.936   -12918.662    296.94064    68181.941    640.88778 
    2000   -13112.169    157.34554   -12954.823   -13002.994    304.39561    68257.286   -1130.7011 
    3000   -13109.134    149.37837   -12959.756   -12989.585    288.98258    68236.827   -700.37948 
    4000   -13112.477    161.30345   -12951.174   -13003.639    312.05246    68283.287   -1231.0169 
    5000   -13099.964    147.63872   -12952.325   -12951.828    285.61712    68245.741    11.661931 
    6000   -13106.682     149.0363   -12957.646   -12959.278    288.32082    68197.096   -38.342343 
    7000   -13117.153    164.18232   -12952.971   -12995.464    317.62183     68225.35   -997.88719 
    8000   -13107.552    155.78016   -12951.772   -12957.222    301.36729    68216.154    -128.0204 
    9000   -13104.964    147.93857   -12957.025   -12936.678     286.1972    68163.005    478.25779 
   10000   -13111.143    159.13464   -12952.008   -12958.093    307.85675    68195.552   -142.96365 
   11000   -13108.529     157.3495   -12951.179   -12947.149    304.40328    68190.768    94.683728 
   12000   -13108.358    153.26145   -12955.097   -12941.585    296.49467    68161.916    317.60597 
   13000   -13107.915    154.12561    -12953.79    -12938.89    298.16643    68168.941    350.18667 
   14000   -13109.314    161.82147   -12947.493    -12963.27    313.05461    68234.882   -370.44187 
   15000   -13109.874    155.48924   -12954.385   -12958.044    300.80449    68198.611   -85.964439 
   16000    -13105.47     150.2664   -12955.203    -12943.77    290.70055    68196.008    268.59846 
   17000   -13105.417    156.83961   -12948.577   -12956.803    303.41687    68250.653   -193.09261 
   18000   -13112.537    157.60801   -12954.929    -12969.65    304.90338    68198.632   -345.82447 
   19000   -13107.033    152.57896   -12954.455   -12949.354    295.17434    68200.936     119.8259 
   20000   -13103.334    154.11844   -12949.215   -12940.842    298.15258    68228.177    196.61175 
   21000   -13110.257    158.13051   -12952.127   -12965.111    305.91419    68218.045   -304.94008 
   22000   -13107.517    151.39878   -12956.118   -12953.414    292.89121    68198.662    63.515665 
   23000   -13105.837    155.57123   -12950.265    -12953.25    300.96308    68239.007    -70.07759 
   24000   -13110.416    156.34624    -12954.07   -12971.435    302.46239    68225.414   -407.78932 
   25000   -13108.317    152.55561   -12955.761   -12961.842    295.12917    68217.348   -142.82402 
   26000   -13108.988    158.21774    -12950.77   -12968.333    306.08294    68236.785   -412.36468 
   27000   -13111.006    153.58233   -12957.423    -12955.69    297.11543    68176.115    40.725348 
   28000   -13109.622    154.54022   -12955.082   -12950.396    298.96854    68180.091    110.13072 
   29000   -13107.335    155.34341   -12951.992   -12934.804    300.52236    68179.558    403.91253 
   30000   -13109.423    155.64785   -12953.775   -12936.871    301.11133    68151.276    397.38308 
   31000   -13109.585    155.33553   -12954.249   -12928.689    300.50712    68144.369    600.95503 
   32000   -13108.682    158.65294    -12950.03   -12934.048    306.92488        68171     375.6062 
   33000   -13108.924    153.70883   -12955.215   -12933.299    297.36015    68149.611    515.25125 
   34000   -13109.616    153.82474   -12955.791   -12949.832    297.58438    68178.739    140.04736 
   35000   -13109.365    158.37532    -12950.99   -12973.197    306.38779    68249.564   -521.30787 
   36000   -13106.028    153.49944   -12952.528   -12980.817    296.95508    68290.537   -663.68562 
   37000   -13108.276    151.63456   -12956.642   -13003.803    293.34733    68306.289   -1106.2001 
   38000    -13109.79    156.58382   -12953.206   -13025.323    302.92203    68353.244   -1690.3905 
   39000   -13105.809    155.00516   -12950.804   -13011.536    299.86799     68366.75   -1423.2657 
   40000   -13108.849    154.21561   -12954.634   -13003.069    298.34055     68305.86   -1136.0977 
   41000   -13107.347    153.14635   -12954.201    -12972.64    296.27201    68249.462   -432.85684 
   42000   -13107.521    158.01613   -12949.505   -12946.935    305.69291    68213.716     60.37624 
   43000   -13110.451    158.49219   -12951.959   -12931.914    306.61388    68141.506    471.30225 
   44000   -13109.771    154.63595   -12955.135   -12909.897    299.15374    68092.104    1064.4348 
   45000   -13107.025    156.03105   -12950.994   -12899.822    301.85264    68106.481    1203.8064 
   46000   -13108.318    157.27509   -12951.043   -12910.692    304.25933    68128.829    948.94753 
   47000   -13110.778    154.47448   -12956.304    -12929.54    298.84136    68121.648    629.47054 
   48000   -13106.156    155.55039   -12950.605   -12932.117    300.92277    68188.562    434.40896 
   49000   -13110.154    154.15299   -12956.001   -12959.258    298.21941    68189.691   -76.522167 
   50000   -13112.729    156.88562   -12955.843   -12978.574    303.50587     68214.21    -533.8761 
   51000   -13107.954    156.24125   -12951.713   -12972.005    302.25929    68255.254   -476.31818 
   52000   -13110.927    151.84582   -12959.081   -12974.462    293.75603    68209.571   -361.29527 
   53000    -13109.41    154.26783   -12955.142   -12976.763    298.44157    68240.194   -507.62537 
   54000   -13106.387    153.65309   -12952.734   -12963.798    297.25232    68248.374   -259.74338 
   55000   -13111.932    154.08956   -12957.842    -12977.75     298.0967    68214.074   -467.58707 
   56000   -13110.566     152.7913   -12957.775   -12969.143    295.58513    68206.251   -267.04917 
   57000    -13110.76    157.01463   -12953.746   -12961.681    303.75545    68207.268    -186.3968 
   58000   -13109.012    156.39146    -12952.62   -12949.559    302.54988    68189.352    71.922838 
   59000   -13109.572    152.67581   -12956.896   -12933.607    295.36171     68144.86    547.55795 
   60000   -13110.991    156.61498   -12954.376    -12935.75    302.98229    68140.144     437.9532 
Loop time of 764.431 on 1 procs for 60000 steps with 4000 atoms

Performance: 6.782 ns/day, 3.539 hours/ns, 78.490 timesteps/s
99.3% CPU use with 1 MPI tasks x no OpenMP threads

MPI task timing breakdown:
Section |  min time  |  avg time  |  max time  |%varavg| %total
---------------------------------------------------------------
Pair    | 748.4      | 748.4      | 748.4      |   0.0 | 97.90
Neigh   | 1.1421     | 1.1421     | 1.1421     |   0.0 |  0.15
Comm    | 2.8277     | 2.8277     | 2.8277     |   0.0 |  0.37
Output  | 0.10294    | 0.10294    | 0.10294    |   0.0 |  0.01
Modify  | 10.235     | 10.235     | 10.235     |   0.0 |  1.34
Other   |            | 1.721      |            |       |  0.23

Nlocal:    4000 ave 4000 max 4000 min
Histogram: 1 0 0 0 0 0 0 0 0 0
Nghost:    8195 ave 8195 max 8195 min
Histogram: 1 0 0 0 0 0 0 0 0 0
Neighs:    318084 ave 318084 max 318084 min
Histogram: 1 0 0 0 0 0 0 0 0 0

Total # of neighbors = 318084
Ave neighs/atom = 79.521
Neighbor list builds = 99
Dangerous builds = 0
unfix 1
undump 2

######################################
# SIMULATION DONE
print "All done"
All done
Total wall time: 0:12:44
