LAMMPS (17 Nov 2016)
Lattice spacing in x,y,z = 4.05 4.05 4.05
Created orthogonal box = (0 0 0) to (40.5 40.5 40.5)
  7 by 5 by 8 MPI processor grid
Lattice spacing in x,y,z = 4.05 4.05 4.05
Created 4000 atoms
Neighbor list info ...
  2 neighbor list requests
  update every 1 steps, delay 10 steps, check yes
  max neighbors/atom: 2000, page size: 100000
  master list distance cutoff = 8.28721
  ghost atom cutoff = 8.28721
  binsize = 4.1436, bins = 10 10 10
Setting up Verlet run ...
  Unit style    : metal
  Current step  : 0
  Time step     : 0.001
Memory usage per processor = 2.76608 Mbytes
Step Lx Ly Lz Press Pxx Pyy Pzz PotEng Temp 
       0         40.5         40.5         40.5    2496.1233    2446.9902    2534.6541    2506.7256       -13440          300 
    1000    40.557043    40.557043    40.557043    801.92869    706.05054    856.41375    843.32177   -13363.016    168.91196 
    2000    40.571427    40.571427    40.571427    278.80422    347.65291    185.67293    303.08683   -13355.219    176.43403 
    3000    40.581427    40.581427    40.581427    81.229811    94.458036   -69.336869    218.56827   -13347.883     185.2444 
    4000    40.587969    40.587969    40.587969    75.158823    118.49147    5.5911742    101.39382   -13340.788    194.50994 
    5000    40.595685    40.595685    40.595685   -47.138279   -4.5379416   -114.00738   -22.869519   -13334.714    205.51803 
    6000    40.601741    40.601741    40.601741   -55.294852   -5.0977336    -111.1497   -49.637126    -13328.89    216.49376 
    7000    40.609133    40.609133    40.609133   -59.579882    -50.07334   -100.36037   -28.305942   -13321.336    223.36574 
    8000    40.612647    40.612647    40.612647    72.772016    14.272354    97.503686    106.54001   -13314.348    230.34416 
    9000    40.618663    40.618663    40.618663   -42.398241     4.747091   -141.02894    9.0871309   -13313.541    248.06745 
   10000    40.623503    40.623503    40.623503    77.292704    211.80336   -34.211842    54.286597   -13307.092    253.46888 
   11000    40.631433    40.631433    40.631433   -266.80134   -130.83945   -455.14066   -214.42391   -13306.315    268.27053 
   12000    40.634061    40.634061    40.634061    19.534783    129.06801    134.63948   -205.10314   -13298.766    268.29767 
   13000    40.638677    40.638677    40.638677   -131.43395   -122.49391   -124.08071   -147.72723   -13296.853     277.4914 
   14000    40.642488    40.642488    40.642488   -196.82682   -233.79047   -182.23564   -174.45434   -13294.049    283.21693 
   15000    40.646516    40.646516    40.646516   -221.98066    -176.5184    -326.7806   -162.64298   -13292.342    289.30948 
   16000     40.64532     40.64532     40.64532    79.081027    141.80114    29.294333    66.147607   -13286.652    286.03087 
   17000    40.646347    40.646347    40.646347    71.650106    241.46986   -180.37659    153.85705   -13287.075    292.98687 
   18000    40.646207    40.646207    40.646207    115.57537    75.515674    127.96985    143.24057    -13285.46    294.50517 
   19000    40.651461    40.651461    40.651461    -38.83602    99.888753   -227.33172    10.934908   -13284.944    296.69836 
   20000     40.65175     40.65175     40.65175   -123.75621   -90.730108    -98.39119   -182.14734    -13286.06    300.73721 
Loop time of 3146.24 on 280 procs for 20000 steps with 4000 atoms

Performance: 0.549 ns/day, 43.698 hours/ns, 6.357 timesteps/s
99.5% CPU use with 280 MPI tasks x no OpenMP threads

MPI task timing breakdown:
Section |  min time  |  avg time  |  max time  |%varavg| %total
---------------------------------------------------------------
Pair    | 578.75     | 839.98     | 1126.1     | 446.1 | 26.70
Neigh   | 0          | 0          | 0          |   0.0 |  0.00
Comm    | 28.465     | 764.91     | 1220.1     |1206.4 | 24.31
Output  | 1.4184     | 1.5392     | 1.7476     |   7.3 |  0.05
Modify  | 791.53     | 1318.9     | 1881.1     | 937.8 | 41.92
Other   |            | 220.9      |            |       |  7.02

Nlocal:    14.2857 ave 23 max 6 min
Histogram: 4 40 4 84 24 28 0 72 0 24
Nghost:    772.214 ave 781 max 764 min
Histogram: 24 0 72 0 40 54 42 18 26 4
Neighs:    1000 ave 1718 max 399 min
Histogram: 7 36 24 71 36 19 53 10 9 15
FullNghs:  0 ave 0 max 0 min
Histogram: 280 0 0 0 0 0 0 0 0 0

Total # of neighbors = 280000
Ave neighs/atom = 70
Neighbor list builds = 0
Dangerous builds = 0
Initial Length, L0: 40.651749899656
Setting up Verlet run ...
  Unit style    : metal
  Current step  : 0
  Time step     : 0.001
Memory usage per processor = 4.27219 Mbytes
Step v_strain Temp v_p2 v_p3 v_p4 KinEng PotEng Press 
       0 -6.9915095e-16    300.73721 0.0090730108  0.009839119  0.018214734    155.45447    -13286.06   -123.75621 
    1000         0.01    294.71869   0.64875278  0.010141062  0.027331804    152.34343   -13280.396   -2287.4188 
    2000         0.02    298.96395    1.2615393 -0.0041758043 -0.0076901694    154.53785   -13277.232   -4165.5777 
    3000         0.03    300.79161    1.8873649  0.023370605 0.0018976469    155.48259   -13270.081    -6375.444 
    4000         0.04    298.67582    2.5212277  0.012683592 -0.028485287    154.38891   -13258.229   -8351.4201 
    5000         0.05    295.68496    3.1023229 0.0022651133 -0.030194806    152.84291   -13243.308   -10247.977 
    6000         0.06    297.69509    3.7219329 0.0089862456  0.020895118    153.88196   -13228.546   -12506.047 
    7000         0.07    293.03486    4.2507507 -0.0037116698 -0.029585006    151.47303   -13208.034    -14058.18 
    8000         0.08    298.85263    4.8236458 -0.022293461 -0.026801334    154.48031   -13190.612    -15915.17 
    9000         0.09    297.98057    5.4158517 -0.012020897  0.005742674    154.02953   -13167.506   -18031.911 
   10000          0.1    292.38759    5.9036144 -0.076585561  0.012788892    151.13845   -13139.758   -19466.059 
   11000         0.11    290.61771    6.4083892  0.011469268 -0.047888697    150.22359   -13111.717   -21239.899 
   12000         0.12    291.39216    6.9576977 -0.0033182619 0.0030296048    150.62391   -13082.814   -23191.363 
   13000         0.13    293.20594    7.4491544  0.063073789   0.06313792    151.56147   -13052.319    -25251.22 
   14000         0.14    288.68095    7.7528488 -0.010765443 -0.011502879    149.22245   -13016.703   -25768.602 
   15000         0.15    287.58413    7.9566454  0.038943478 -0.0040772981    148.65549   -12981.287   -26638.372 
   16000         0.16    357.47309    4.2490587  0.039874309  0.047484357    184.78189   -12992.111   -14454.725 
   17000         0.17     373.5617     2.988672   0.01332065 -0.064235917    193.09827   -13000.962   -9792.5223 
   18000         0.18    395.65072    1.7406094  0.066111147 -0.027978482    204.51634   -13022.047   -5929.1403 
   19000         0.19    405.03145    1.2643841  0.021059745 -0.069406228    209.36534   -13044.602   -4053.4587 
   20000          0.2     413.8111    1.4182509  0.063359177  0.059449908    213.90364    -13068.15   -5136.8667 
Loop time of 2109.35 on 280 procs for 20000 steps with 4000 atoms

Performance: 0.819 ns/day, 29.297 hours/ns, 9.482 timesteps/s
99.5% CPU use with 280 MPI tasks x no OpenMP threads

MPI task timing breakdown:
Section |  min time  |  avg time  |  max time  |%varavg| %total
---------------------------------------------------------------
Pair    | 314.54     | 463.18     | 600.98     | 399.7 | 21.96
Neigh   | 0.0034728  | 0.004097   | 0.0049348  |   0.4 |  0.00
Comm    | 34.589     | 410.49     | 724.8      | 918.9 | 19.46
Output  | 5.4799     | 6.6309     | 7.8693     |  11.9 |  0.31
Modify  | 723.88     | 1016.8     | 1236.6     | 371.5 | 48.20
Other   |            | 212.3      |            |       | 10.06

Nlocal:    14.2857 ave 22 max 9 min
Histogram: 16 15 27 104 41 30 28 11 6 2
Nghost:    680.904 ave 705 max 652 min
Histogram: 5 2 19 45 46 47 62 32 12 10
Neighs:    983.225 ave 1480 max 576 min
Histogram: 7 19 36 52 57 52 28 16 5 8
FullNghs:  1963.66 ave 3086 max 1231 min
Histogram: 16 15 57 74 41 36 22 11 6 2

Total # of neighbors = 549825
Ave neighs/atom = 137.456
Neighbor list builds = 83
Dangerous builds = 0
All done
Total wall time: 1:27:42
