# LAMMPS data file written by OVITO
4000 atoms
1 atom types
-16.383358 24.461216 xlo xhi
-16.383358 24.461216 ylo yhi
-16.383358 24.461216 zlo zhi

Atoms # atomic

8 1 -14.5166626 -14.4061499 -12.5216341
43 1 -14.3702469 -12.0097218 -14.3363218
402 1 -12.3837061 -14.1598244 -14.3114758
445 1 -12.2851362 -12.4252243 -12.2814598
5 1 -16.4567566 -16.4431801 -12.12817
4 1 -14.3803768 -14.1313639 -16.3547917
2 1 -16.4289227 -14.365509 -14.4678211
45 1 -16.3789654 -12.2344475 -12.4228516
441 1 -12.0696812 -11.9457178 -16.156683
408 1 -10.2977209 -14.2812595 -12.2471504
443 1 -10.3361149 -12.3134613 -14.1348763
802 1 -8.2721157 -14.3161411 -14.133214
845 1 -8.1304255 -12.1295586 -12.3571606
805 1 -8.2591677 -16.278965 -12.3161535
801 1 -8.0462456 -16.1565991 -16.2628021
808 1 -5.9368278 -14.2533379 -12.2323647
843 1 -6.1244259 -12.4042139 -14.4235535
1202 1 -4.2367535 -14.3047485 -14.4984179
1245 1 -4.0121899 -12.2393084 -12.523962
803 1 -6.0303612 -16.3775387 -14.2917481
1205 1 -4.1132393 -16.6226235 -11.9687538
804 1 -6.1315336 -14.2883301 -16.811348
1241 1 -4.0224428 -12.4663639 -16.3777371
1208 1 -2.2301006 -14.5560208 -12.4344273
1243 1 -2.1421614 -12.4161368 -14.3727837
1602 1 -0.1223564 -14.3260574 -14.4402962
1645 1 -0.1340389 -12.2618141 -12.4091444
1203 1 -2.330904 -16.5340634 -14.5703449
1608 1 1.9300824 -14.2805939 -12.243556
1643 1 1.923956 -12.2242365 -14.4290715
2002 1 3.951439 -14.2308283 -14.4511118
2045 1 3.8681984 -12.225544 -12.3788014
2008 1 6.0187054 -14.4296026 -12.456646
2043 1 6.0006943 -12.4238358 -14.3071747
1604 1 1.998335 -14.0347748 -16.3457642
2041 1 4.0912514 -12.294693 -16.4376469
2402 1 7.952736 -14.2994681 -14.3780003
2408 1 10.2671566 -14.3606043 -12.3401089
2443 1 10.2262287 -12.3772736 -14.2741814
2445 1 8.0867481 -12.3616619 -12.3173828
2404 1 10.2640495 -14.4100828 -16.3799343
2403 1 10.078495 -16.368681 -14.4679928
2802 1 12.2822228 -14.3885574 -14.2228556
2808 1 14.2994137 -14.5140038 -12.2813378
2843 1 14.3977661 -12.5043974 -14.4047365
2845 1 12.3156738 -12.3892861 -12.54068
2801 1 12.1758633 -16.4362126 -16.169199
2803 1 14.33074 -16.406498 -14.3956242
2804 1 14.4457588 -14.3181954 -16.6431599
3202 1 16.4169579 -14.5355168 -14.4453812
3208 1 18.5490036 -14.3768435 -12.4086666
3243 1 18.5184517 -12.2580147 -14.6721745
3245 1 16.3777504 -12.70327 -12.3489514
3203 1 18.5265389 -16.5258332 -14.3075504
3205 1 16.2676315 -16.3687325 -12.3833304
3201 1 16.3407822 -16.6649609 -16.5816231
3602 1 20.5423851 -14.3206129 -14.3716402
3608 1 22.4397774 -14.3890486 -12.2887707
3643 1 22.3820648 -12.2083893 -14.5344429
3645 1 20.2695809 -12.1623573 -12.4539671
3603 1 22.2833405 -16.427351 -14.4590273
3641 1 20.4325524 -12.5385885 -16.4536305
3605 1 20.5421372 -16.3578339 -12.2330589
41 1 24.433197 -12.3541222 -16.2435475
3604 1 22.4900589 -14.2918425 -16.4759159
48 1 -14.4825459 -10.0079689 -12.212596
83 1 -14.3744383 -8.108901 -14.4413662
442 1 -12.2507448 -10.0615158 -14.273674
485 1 -12.3830357 -8.2716255 -12.0961075
44 1 -14.2099037 -10.0700531 -16.3916245
85 1 -16.572134 -8.088274 -12.2903233
481 1 -12.2007923 -8.188139 -16.4097424
448 1 -10.1717148 -10.180088 -12.2344895
483 1 -10.3910093 -8.1841364 -14.3209362
842 1 -8.1788263 -10.1062002 -14.2175579
885 1 -8.2052536 -8.2640286 -12.1724873
881 1 -8.221591 -8.1433735 -16.446373
444 1 -10.1795979 -10.2078629 -16.3280201
848 1 -6.0395107 -10.021203 -12.2630797
883 1 -6.0861139 -8.3221913 -14.4359865
1242 1 -4.0367785 -10.136385 -14.4064846
1285 1 -4.0413122 -8.124177 -12.2450266
844 1 -6.0961628 -10.1848259 -16.2621307
1281 1 -4.0493174 -8.0832911 -16.3113651
1248 1 -1.9017916 -10.0675612 -12.3932152
1283 1 -1.9069796 -8.0158157 -14.3316984
1642 1 -0.0057449 -10.1389179 -14.3184528
1685 1 0.0015259 -8.0839443 -12.4587174
1244 1 -1.9954892 -10.018548 -16.3140869
1681 1 0.0582581 -8.0632772 -16.4248905
1683 1 2.0838623 -8.162571 -14.4425755
1648 1 2.1714325 -10.1426754 -12.4960327
2042 1 4.0589428 -10.2172976 -14.6090613
2085 1 4.0961113 -8.0694447 -12.2065506
2048 1 5.935793 -10.0608635 -12.3692265
2083 1 6.1535339 -8.0737743 -14.1747856
1644 1 2.0578041 -10.2686806 -16.697773
2081 1 4.0035973 -8.2209377 -16.5233269
2044 1 6.2043457 -10.1638317 -16.3099117
2442 1 8.0923862 -10.3008251 -14.2323361
2448 1 10.2508984 -10.2951069 -12.3242407
2483 1 10.078249 -8.0955849 -14.3078861
2485 1 8.1302891 -8.2228165 -12.3267403
2842 1 12.3118763 -10.2987824 -14.3724613
2848 1 14.2952862 -10.1635876 -12.3640928
2883 1 14.2299366 -8.2184057 -14.5918293
2885 1 12.2066994 -8.2847777 -12.4855156
3242 1 16.2427559 -10.3734055 -14.456131
3248 1 18.1718865 -10.3183479 -12.3810063
3283 1 18.1701698 -8.2552881 -14.5072241
3285 1 16.3619423 -8.1033459 -12.4359989
42 1 24.3803024 -10.2257118 -14.3575573
3642 1 20.3767586 -10.0533466 -14.2193794
3648 1 22.2745628 -10.220974 -12.258791
3683 1 22.3352547 -8.2184868 -14.3202706
3685 1 20.1708603 -8.1762533 -12.3506336
3681 1 20.4196854 -8.1724138 -16.4231892
3644 1 22.2396774 -10.2100277 -16.430254
81 1 24.6956673 -8.1403923 -16.4894676
88 1 -14.3224917 -6.2880087 -12.1434059
123 1 -14.2983408 -4.1816549 -14.3072777
482 1 -12.3085804 -6.1014719 -14.2989006
525 1 -12.4863978 -4.1747932 -12.2406559
125 1 -16.3404141 -4.2104502 -12.4631615
82 1 -16.489233 -6.1278162 -14.4107895
84 1 -14.2231541 -6.0421247 -16.4525719
488 1 -10.4199276 -6.2729368 -12.1715889
523 1 -10.1746969 -4.2137585 -14.1619968
882 1 -8.103632 -6.32722 -14.1670294
925 1 -8.0579672 -4.058712 -12.4325524
921 1 -8.1380234 -4.1679716 -16.1989403
484 1 -10.0858192 -5.986536 -16.3932228
888 1 -6.2213097 -6.304143 -12.2431479
923 1 -6.0335474 -4.0627956 -14.1979361
1282 1 -4.1213274 -6.1800566 -14.2983647
1325 1 -3.9565192 -4.1964808 -12.3401051
1321 1 -3.9648914 -3.9856416 -16.301527
884 1 -6.019455 -6.0659781 -16.5273838
1288 1 -1.8398714 -5.9137908 -12.5449934
1323 1 -2.1019297 -3.8660488 -14.3843632
1682 1 0.1319008 -6.0260324 -14.33883
1725 1 0.0299511 -3.9695892 -12.4082413
1284 1 -2.0482607 -5.9073382 -16.3816929
1721 1 0.0569096 -4.1981554 -16.4382439
1688 1 2.2626381 -6.1169519 -12.3917647
1723 1 2.1352043 -3.8413372 -14.2473583
2082 1 4.1117554 -6.0850925 -14.3827419
2125 1 4.0894146 -3.886675 -12.2839518
2123 1 6.2199478 -4.0283232 -14.3226109
2088 1 6.0193596 -6.032445 -11.9815788
1684 1 1.9799538 -6.0047522 -16.5258065
2121 1 4.3301907 -4.0654507 -16.3363114
2482 1 8.0502338 -6.1967621 -14.2471953
2488 1 9.9070702 -6.1422758 -12.2770081
2523 1 9.9531822 -4.3003883 -14.3466272
2525 1 7.9694004 -4.1318235 -12.1476126
2521 1 8.0982685 -4.1441994 -16.5428982
2882 1 12.0775089 -6.0917912 -14.329628
2888 1 14.2229939 -6.1367617 -12.4946356
2923 1 14.184845 -4.0271387 -14.3062763
2925 1 11.9342652 -4.1421986 -12.2976341
3282 1 16.281723 -6.035018 -14.5752096
3288 1 18.1204224 -6.0640583 -12.369051
3323 1 18.3703919 -4.0296307 -14.4062147
3325 1 16.2784157 -3.8761778 -12.3172522
3284 1 18.4096832 -6.0303612 -16.468998
3682 1 20.4649811 -6.1135206 -14.3771544
3688 1 22.1955681 -5.9206524 -12.1362982
3723 1 22.4140015 -4.0078192 -14.2971439
3725 1 20.2051315 -4.0951862 -12.1577826
3684 1 22.4153099 -6.0330572 -16.3016319
128 1 -14.2328014 -1.982419 -12.1967487
163 1 -14.2146301 -0.1454334 -14.4600687
522 1 -12.3189182 -2.0765657 -14.1383724
565 1 -12.2251358 -0.018816 -12.313221
122 1 -16.4475003 -1.8474284 -14.2370329
561 1 -12.1904583 -0.1096134 -16.3387032
165 1 -16.3652935 -0.1965714 -11.858678
161 1 -16.4246502 -0.1856251 -16.4037533
124 1 -14.4051323 -2.041316 -16.4258404
528 1 -10.2357187 -2.1082211 -12.1940527
563 1 -10.2095375 0.0434303 -14.1235132
922 1 -8.1459065 -2.1230869 -14.19308
965 1 -8.2437697 -0.011301 -12.1165705
524 1 -10.1688967 -2.0316362 -16.0508003
928 1 -6.0700617 -2.1371384 -12.2368574
963 1 -6.2514525 0.0793343 -14.209753
1322 1 -4.2320147 -1.9866676 -14.2984181
1365 1 -4.1609469 -0.1915894 -12.258709
924 1 -6.0537653 -2.0623102 -16.3021164
1328 1 -2.0805283 -2.0723991 -12.2680626
1363 1 -2.0179949 -0.0172653 -14.279973
1722 1 0.0390606 -2.0272665 -14.3514137
1765 1 0.0966511 -0.2568169 -12.189846
1324 1 -2.0334749 -1.9624052 -16.1523094
1728 1 2.1053066 -2.061861 -12.2046318
1763 1 1.8514156 9.9372864e-04 -14.2777796
2122 1 4.2448273 -1.8793678 -14.4248896
2165 1 4.2057381 0.0664673 -12.3830032
2128 1 6.1304989 -2.0608816 -11.974309
2161 1 3.972231 0.0828056 -16.3665695
1724 1 2.170454 -1.9996958 -16.4269066
2163 1 6.2926083 0.1975784 -14.376092
2522 1 8.3403931 -2.1192484 -14.3891382
2528 1 10.0372009 -2.1195755 -12.1793079
2563 1 10.139925 0.0333824 -14.2667761
2565 1 8.1947022 0.0901165 -12.1668501
2524 1 10.3231945 -1.959015 -16.2694626
2922 1 12.3101597 -1.9956122 -14.2459822
2928 1 14.2001591 -2.0548763 -12.1566391
2963 1 14.3553295 -0.0014153 -14.2386589
2965 1 12.1271343 -0.0168552 -12.1861696
2924 1 14.1950951 -1.9296484 -16.4038048
3322 1 16.2461052 -1.9113092 -14.4722319
3328 1 18.2305832 -2.0439711 -12.2381649
3363 1 18.2927055 -0.0990353 -14.285842
3365 1 16.225193 -0.0936852 -12.2164354
3361 1 16.2797203 0.1341057 -16.5462113
3722 1 20.3087502 -2.0018616 -14.2213526
3728 1 22.3344002 -2.0426655 -12.453228
3763 1 22.3600502 -0.0012131 -14.464406
3765 1 20.3154526 -0.1508255 -12.2540131
3724 1 22.4910774 -2.041481 -16.4009857
3761 1 20.4811173 -0.1685944 -16.3135815
168 1 -14.5309506 1.8046093 -12.3256664
203 1 -14.1469336 4.0403576 -14.1740789
208 1 -14.2179947 6.1314392 -12.410676
562 1 -12.1718741 2.0237389 -14.2745857
602 1 -12.2439232 6.2911797 -14.435113
605 1 -12.0916958 4.1307468 -12.433672
204 1 -14.492548 5.9982434 -16.2924194
202 1 -16.421238 5.9899922 -14.2784491
205 1 -16.3501053 4.0020466 -12.22052
601 1 -12.2487431 4.0544491 -16.2997227
568 1 -10.3511047 2.1395741 -12.2503357
962 1 -8.262558 2.0555573 -14.3131714
603 1 -10.3129559 4.21591 -14.55509
1002 1 -8.2038641 6.164074 -14.412571
1005 1 -8.2673369 4.0610657 -12.3262949
608 1 -10.2094965 6.1949081 -12.2965317
1362 1 -4.3883276 2.0221863 -14.2230072
968 1 -6.2933598 2.1105747 -12.0669041
1003 1 -6.3047962 4.0923138 -14.2082253
1405 1 -4.294467 3.9193364 -12.1253519
1008 1 -6.2002344 6.1068077 -12.2906914
1402 1 -4.2859297 5.843483 -14.2832651
964 1 -6.329834 1.9487476 -16.165266
1004 1 -6.1332083 6.0221787 -16.3189392
1403 1 -2.092658 4.0526943 -14.3365669
1762 1 -0.0609684 1.9913082 -14.2434988
1805 1 -0.0745678 4.1472492 -12.2545033
1368 1 -2.2402706 1.8481064 -12.3216839
1408 1 -2.2831984 5.8955594 -12.387084
1404 1 -1.9779664 5.9863168 -16.35886
1768 1 2.0718555 1.8833562 -12.2186003
1803 1 2.0540867 4.082346 -14.3565931
2162 1 3.9879972 2.2269001 -14.2949095
1808 1 2.1383095 5.9396726 -12.3821421
2205 1 4.128746 4.0896988 -12.1315603
2168 1 6.2619782 1.9714584 -12.2053261
2208 1 6.0584869 6.2164765 -12.294898
2202 1 3.9840336 6.1489182 -14.3788738
2203 1 6.2052441 4.0847988 -14.3980866
2164 1 6.082016 2.142149 -16.3593731
2201 1 4.0937004 4.1766167 -16.3030586
1764 1 2.1361027 2.0095253 -16.3050823
2204 1 6.2430248 6.3037205 -16.3810787
2562 1 8.2152062 1.9578992 -14.2956324
2568 1 10.0854797 2.1008129 -12.1928682
2603 1 9.998806 4.2574883 -14.2659512
2605 1 8.0062046 4.1398563 -12.2429848
2602 1 8.0971642 6.2919979 -14.4453774
2608 1 10.3631802 6.1919289 -12.1854754
2604 1 9.9409294 6.1121979 -16.3638859
2564 1 10.0197182 2.2545929 -16.1721821
2601 1 8.1065178 4.1373234 -16.3984242
2968 1 14.13097 2.0167961 -12.2998562
2962 1 11.993002 2.0593147 -14.1150093
3003 1 14.282217 4.0661716 -14.4912491
3005 1 12.3242912 4.1047707 -12.4013558
3008 1 14.1433449 6.0709057 -12.4983483
3002 1 12.0890255 6.2826023 -14.3538723
3004 1 14.2494202 6.248415 -16.3004837
3362 1 16.384243 2.095911 -14.0135765
3368 1 18.2119141 1.998457 -11.9661398
3402 1 16.3431511 6.1489601 -14.3281689
3403 1 18.5177155 4.1376095 -14.2818718
3405 1 15.999405 4.1180058 -12.3943873
3408 1 18.1970062 6.0694351 -12.197443
162 1 24.4069748 1.854887 -14.252223
3762 1 20.2687645 1.9002248 -14.081521
3768 1 22.5145226 1.883234 -12.2096138
3803 1 22.2816658 4.0664578 -14.08037
3805 1 20.475399 4.0006981 -12.2352238
3802 1 20.4532585 6.1649303 -14.1659718
3808 1 22.5647621 6.2995129 -12.0671482
243 1 -14.3499603 8.1979694 -14.3913679
248 1 -14.1887341 9.9467278 -12.3698187
642 1 -12.3185349 9.9592686 -14.3733883
645 1 -12.3264465 8.1552448 -12.3872643
245 1 -16.3810139 8.2617684 -12.3599548
242 1 -16.2979031 10.1225643 -14.5528183
244 1 -14.4447804 10.1652069 -16.3704662
643 1 -10.2452355 8.1047611 -14.56178
648 1 -10.2929421 10.1462555 -12.4266873
1042 1 -8.1455793 10.2736492 -14.2829256
1045 1 -8.180665 8.0585251 -12.1905403
1041 1 -8.072917 8.1657429 -16.4243126
644 1 -10.1993265 10.1486645 -16.4020996
1043 1 -6.2137127 8.0818062 -14.402278
1048 1 -6.3807259 10.0334415 -12.1785317
1442 1 -4.3311453 10.1518898 -14.2157574
1445 1 -4.3298798 8.1071301 -12.1577826
1044 1 -6.1455841 10.0929127 -16.4991341
1802 1 -0.1021385 5.9194546 -14.2975845
1443 1 -2.2310801 8.0654697 -14.3327847
1448 1 -2.2704134 10.2213287 -12.1467953
1842 1 -0.2098045 9.9714414 -14.1185837
1845 1 -0.2687435 8.0057125 -12.1759586
1848 1 1.9040642 10.3206616 -12.1451616
1843 1 1.8212719 8.1998882 -14.2325802
2242 1 4.1463089 10.3094292 -14.4243746
2243 1 6.1192665 8.2765942 -14.1506348
2245 1 3.8866196 8.1817532 -12.4010201
2248 1 6.1242085 10.2712803 -12.1405468
2241 1 4.115675 7.996973 -16.4074135
2642 1 8.1787319 10.3401432 -14.0243063
2643 1 10.0858059 8.2470646 -14.4327965
2645 1 8.2085056 8.0149441 -12.2689209
2648 1 10.3964672 10.2004166 -12.2574844
2644 1 10.2483254 10.1707211 -16.315609
3042 1 12.2707863 10.3881378 -14.1931944
3043 1 14.2703304 8.1302891 -14.259861
3045 1 12.3233929 8.2430611 -12.2560959
3048 1 14.1854553 10.1456032 -12.2217445
3442 1 16.2723274 10.1283245 -14.1980715
3443 1 18.3518486 7.996891 -14.2263479
3445 1 16.3240395 8.0954895 -11.9547444
3448 1 18.2431603 10.3831959 -12.4159241
3842 1 20.3173714 10.1773777 -14.3604365
3843 1 22.3817787 8.1364975 -14.3190727
3845 1 20.2134209 8.2386913 -12.2764359
3848 1 22.253933 10.3330784 -12.3547516
283 1 -14.3655872 12.2044926 -14.4519043
288 1 -14.1749325 14.2934895 -12.2339172
682 1 -12.3452635 14.0882854 -14.3631401
685 1 -12.2890978 11.9689026 -12.3712444
282 1 -16.3793087 14.1843929 -14.2075558
285 1 -16.4222679 12.1666737 -12.1822491
683 1 -10.3205128 12.2295742 -14.4729557
688 1 -10.2371884 14.0770149 -12.408658
1082 1 -8.1331215 14.2622833 -14.5538359
1085 1 -8.0972605 12.1650791 -12.4376946
1083 1 -6.0978365 12.2541218 -14.4761944
1088 1 -6.0525408 14.2240963 -12.4119625
1482 1 -4.2043638 14.1197376 -14.4060965
1485 1 -4.3934326 12.1966515 -12.318367
1483 1 -2.190032 12.1816616 -14.404336
1488 1 -2.4219074 14.1596832 -12.2967768
1882 1 -0.1344891 14.3193855 -14.3647461
1885 1 -0.1748829 12.3590908 -12.3211975
1881 1 -0.0403004 12.2534275 -16.4942208
1888 1 1.8632604 14.2249527 -12.3240891
1883 1 1.8489648 11.995697 -14.287117
2282 1 3.7520371 13.9638748 -14.3480606
2283 1 5.999714 12.2633515 -14.1727924
2285 1 4.0178127 12.3144493 -12.1211853
2288 1 6.0402317 14.1548634 -12.1040726
2682 1 8.0517445 13.9986324 -14.3531456
2683 1 10.2751598 12.339037 -14.3124113
2685 1 8.3270798 12.3941765 -12.2180691
2688 1 10.3965931 14.4901562 -12.0881023
2684 1 10.2569008 14.3195076 -16.3610458
3082 1 12.1421642 14.2472954 -14.2846336
3083 1 14.1718559 12.1625881 -14.1786165
3085 1 12.2310829 12.2094765 -11.984438
3088 1 14.2133942 14.4285622 -12.1669321
3081 1 12.1289711 12.2831211 -16.1982479
3482 1 16.2576256 14.2607327 -14.1276064
3483 1 18.2908249 12.3380566 -14.3896036
3485 1 16.2142487 12.2478294 -12.0100889
3488 1 18.3331413 14.2960625 -12.2652455
3481 1 16.1888847 12.183012 -16.2559986
3882 1 20.3049965 14.1893768 -14.3588276
3883 1 22.4940605 12.2457466 -14.4566212
3885 1 20.2532845 12.4266911 -12.3687363
3888 1 22.328434 13.9764138 -12.2683087
3884 1 22.3303948 14.2089024 -16.3218537
3881 1 20.1774368 12.2666588 -16.2584705
323 1 -14.1959105 16.3904915 -14.3008938
328 1 -14.349927 18.2869034 -12.2174969
722 1 -12.0803003 18.3063088 -14.3813982
725 1 -12.0008583 16.2575035 -12.5191756
322 1 -16.4611073 18.2802467 -14.3483181
723 1 -10.1079159 16.2012177 -14.4361954
728 1 -10.2291012 18.4118919 -12.3772078
1122 1 -8.2313528 18.3423729 -14.3056889
1125 1 -8.2865744 16.3119087 -12.3374701
1121 1 -8.3453503 16.1951752 -16.564827
1123 1 -6.2822495 16.3306923 -14.4139795
1128 1 -6.2178383 18.3077355 -12.4312611
1522 1 -4.1600885 18.3461685 -14.6418762
1525 1 -4.3665581 16.3015709 -12.1920109
1523 1 -2.2415371 16.22258 -14.4012604
1528 1 -2.1600933 18.2429161 -12.4383602
1922 1 -0.0712605 18.2142449 -14.375618
1925 1 -0.1524601 16.2638741 -12.4078293
1923 1 2.0467758 16.1116867 -14.304533
1928 1 1.8736764 18.1381493 -12.256382
2322 1 4.1102428 17.9700738 -14.2544003
2325 1 4.0750351 16.0335503 -12.3008251
2323 1 5.9992638 15.9375688 -14.4660445
2328 1 6.0903492 18.10923 -12.3708239
2324 1 6.0143776 18.0198212 -16.3141594
1924 1 1.8441868 18.1062508 -16.3695336
2722 1 7.881464 18.0131645 -14.3852787
2723 1 9.91152 16.2424736 -14.3614416
2725 1 8.1222839 16.1424828 -12.2677364
2728 1 10.0368328 18.2414436 -12.4755326
2724 1 10.1540966 18.1503182 -16.2615337
3122 1 12.1306477 18.4545708 -14.5867443
3123 1 14.0661907 16.3015328 -14.2243061
3125 1 12.1925697 16.576416 -12.2847271
3128 1 14.1404038 18.4246331 -12.2557688
3121 1 12.0988293 16.2392006 -16.3017883
3522 1 16.2320557 18.1936989 -14.4740496
3523 1 18.5018692 16.3804016 -14.3089762
3525 1 16.1589851 16.4065018 -12.3395863
3528 1 18.2966652 18.3665505 -12.2547073
325 1 24.5527039 16.2613411 -12.3084698
321 1 24.2589111 16.1409721 -16.4621582
3922 1 20.3435135 18.2600708 -14.3879452
3923 1 22.3991356 16.4548226 -14.3697415
3925 1 20.3529854 16.4104653 -12.1386671
3928 1 22.4076729 18.2984238 -12.2676134
3924 1 22.3606606 18.3537254 -16.5634461
405 1 -12.3157206 24.6348076 -12.4061012
3 1 -14.5291329 24.5208473 -14.1959353
363 1 -14.3669109 20.2611275 -14.1689653
368 1 -14.4952479 22.4579544 -12.1381359
762 1 -12.3635693 22.4911995 -14.5272455
765 1 -12.3358202 20.4963532 -12.299036
401 1 -12.4087477 24.5204392 -16.5924111
761 1 -12.0586529 20.5333557 -16.5144654
364 1 -14.4070282 22.4852791 -16.433094
403 1 -10.2797489 24.2810516 -14.4168387
763 1 -10.2930241 20.5204506 -14.4108677
768 1 -10.4425965 22.4759636 -12.0902252
1162 1 -8.1820536 22.4964295 -14.3152008
1165 1 -8.2181196 20.5117073 -12.4983082
764 1 -10.2189722 22.4369583 -16.5133286
1163 1 -6.1363945 20.4072685 -14.275198
1168 1 -6.1075172 22.2903671 -12.1683207
1562 1 -4.094492 22.2995186 -14.4289456
1565 1 -3.7665921 20.1713944 -12.2299137
1561 1 -4.0418835 20.3529854 -16.5312386
1164 1 -6.2924194 22.3404846 -16.4250164
1605 1 0.1121311 24.2729225 -12.5490408
1563 1 -2.1023788 20.4179726 -14.4304886
1568 1 -1.961548 22.4314461 -12.1699143
1962 1 0.0175362 22.3473473 -14.5345364
1965 1 -0.3044014 20.2831841 -12.4854784
1961 1 0.0804367 20.4229126 -16.3615132
1564 1 -2.3014965 22.3910103 -16.5782147
1603 1 2.0509415 24.5755806 -14.4583941
2003 1 6.0055542 24.4955216 -14.4382458
2005 1 3.859335 24.5694542 -12.2283211
1968 1 1.8954048 22.246418 -12.2108803
1963 1 2.0837803 20.2364159 -14.2342596
2362 1 3.9257488 22.4119225 -14.021492
2365 1 3.9198266 20.365078 -12.2576065
2368 1 6.0278568 22.3618469 -12.2657757
2363 1 6.0636349 20.3119393 -14.1460962
2405 1 8.158062 24.5931435 -12.6348763
2401 1 8.0620365 24.3904305 -16.3749142
2762 1 7.8748474 22.3895798 -14.2193508
2763 1 9.9874096 20.2578201 -14.4269724
2765 1 8.1797524 20.331543 -12.4361134
2768 1 10.1325722 22.5010834 -12.235755
2764 1 9.960209 22.2973938 -16.4491387
2805 1 12.3302555 24.3109512 -12.1568022
3162 1 12.3597851 22.3724671 -14.5523901
3163 1 14.2351246 20.3063011 -14.5436487
3165 1 12.2638416 20.4566117 -12.3673401
3168 1 14.2111874 22.5102349 -12.2999954
3164 1 14.3523464 22.3242264 -16.5975971
3562 1 16.3244858 22.2855072 -14.6170264
3563 1 18.2276421 20.2759552 -14.4153557
3565 1 16.2387543 20.4724159 -12.4790049
3568 1 18.4774857 22.3797341 -12.3926792
3564 1 18.4288407 22.3297005 -16.4804268
365 1 24.5322838 20.3982849 -12.4706154
362 1 24.2551537 22.4506836 -14.2477179
3962 1 20.5070534 22.27174 -14.2810307
3963 1 22.3804703 20.1555862 -14.4328537
3965 1 20.25774 20.3535996 -12.3026667
3968 1 22.5061493 22.4620362 -12.1250668
1 1 24.4064865 24.243393 -16.2467613
3961 1 20.3154945 20.2896385 -16.3717327
12 1 -14.339242 -14.147522 -8.2542257
47 1 -14.3893175 -12.1902542 -10.4238892
406 1 -12.4191513 -14.3284598 -10.1267452
449 1 -12.27664 -12.3174935 -8.2277184
7 1 -14.1806107 -16.3963261 -10.2868157
409 1 -12.3346062 -16.383791 -8.3297882
412 1 -10.305481 -14.3643084 -8.1689014
447 1 -10.2007561 -12.1891918 -10.1776371
806 1 -8.1876898 -14.1644192 -10.3644199
849 1 -8.1689425 -12.130743 -8.2583103
812 1 -6.0506201 -14.2337084 -8.2621088
847 1 -5.996501 -12.1933994 -10.3430996
1206 1 -3.9216786 -14.3048182 -10.2129269
1249 1 -4.0061855 -12.351737 -8.3230896
1212 1 -2.1337481 -14.4716645 -8.2315569
1247 1 -2.1394253 -12.2378788 -10.3968907
1606 1 -0.1766796 -14.1763096 -10.177556
1649 1 0.1522408 -12.2501736 -8.1762533
1612 1 1.8435326 -14.6163321 -8.0167551
1647 1 2.2129326 -12.4708033 -10.4492131
2006 1 3.8497772 -14.4861355 -10.2059841
2049 1 3.8790628 -12.5282021 -8.1277304
2012 1 6.0177689 -14.4228878 -8.2927017
2047 1 5.9266434 -12.2121067 -10.5404196
2406 1 8.2903595 -14.4623604 -10.3174486
2412 1 10.2554722 -14.2258778 -8.2397261
2447 1 10.1624298 -12.2839108 -10.3967686
2449 1 8.0497437 -12.135809 -8.436801
2409 1 7.868271 -16.5017777 -8.3096924
2806 1 12.2249584 -14.1393128 -10.336196
2812 1 14.3023548 -14.2475462 -8.3801088
2847 1 14.3741989 -12.2297917 -10.2224026
2849 1 12.1308098 -12.1630106 -8.380517
2809 1 12.2167874 -16.0950794 -8.4713555
2807 1 14.2423115 -16.5456467 -10.3201027
3206 1 16.2741242 -14.38904 -10.1762486
3212 1 18.2362595 -14.5785752 -8.1510115
3247 1 18.3009148 -12.2330589 -10.2765637
3249 1 16.3668823 -12.0484829 -8.3344851
3207 1 18.2873116 -16.1450844 -10.4548912
6 1 24.4506378 -14.3213482 -10.2786055
3606 1 20.4896126 -14.2220097 -10.2085571
3612 1 22.5210991 -14.0225372 -8.1811962
3647 1 22.4726982 -12.3287258 -10.4462319
3649 1 20.3604622 -12.2265644 -8.1841364
49 1 24.471016 -12.0374136 -8.3812523
9 1 24.7132302 -16.1988945 -8.347147
3609 1 20.3357086 -16.2244606 -8.1737213
52 1 -14.151329 -10.4097986 -8.3180657
87 1 -14.4269352 -8.1439457 -10.1795168
489 1 -12.1413632 -8.0494308 -8.0926857
446 1 -12.1521053 -10.3252497 -10.2582245
46 1 -16.5706387 -10.1577873 -10.3690758
89 1 -16.4715996 -8.1235237 -8.2992773
452 1 -10.0172405 -10.105588 -8.2614966
487 1 -10.2567539 -8.1450892 -10.3839846
846 1 -8.2074175 -10.2036963 -10.2735815
889 1 -8.0239439 -8.1517468 -8.1029377
852 1 -5.9445478 -10.4110642 -8.480505
887 1 -6.0538883 -8.0944414 -10.1911984
1246 1 -3.9954434 -10.2476864 -10.4945097
1289 1 -3.9906646 -8.2067242 -8.4066982
1252 1 -1.8058892 -10.1814766 -8.4825478
1287 1 -1.8116884 -8.0875387 -10.4342642
1646 1 0.1895332 -10.372344 -10.5865326
1689 1 0.0439625 -8.1925097 -8.1735573
1652 1 2.1108189 -10.0861454 -8.1131897
1687 1 1.9301244 -8.1463146 -10.3638077
2046 1 4.0824299 -10.0909653 -10.1704083
2089 1 4.0666218 -8.0610304 -8.0937882
2052 1 6.0716801 -10.082552 -8.2184868
2087 1 6.2882004 -8.2433615 -10.2926149
2446 1 8.2434712 -10.2413559 -10.3283539
2452 1 10.2493858 -10.2738266 -8.3741045
2487 1 10.2450161 -8.2770577 -10.3730383
2489 1 8.0114727 -8.1714745 -8.0735703
2846 1 12.1967754 -10.2955561 -10.4162922
2852 1 14.2624073 -10.1015444 -8.4013071
2887 1 14.151392 -7.990615 -10.372344
2889 1 12.3079128 -8.052331 -8.1584864
3246 1 16.1495476 -10.1736755 -10.5075398
3252 1 18.3581391 -10.2229338 -8.2557774
3287 1 18.3084717 -8.0783491 -10.3746309
3289 1 16.4186745 -8.188344 -8.4539566
3646 1 20.1614266 -10.2147246 -10.5121546
3652 1 22.3705444 -10.1385899 -8.2733002
3687 1 22.4718819 -8.2711353 -10.2775841
3689 1 20.267498 -8.3509865 -8.4003677
92 1 -14.4741478 -5.881197 -8.2695427
127 1 -14.3191261 -4.1524096 -10.2732544
486 1 -12.505023 -6.2736721 -10.2917576
529 1 -12.0377808 -4.1901493 -8.1129446
129 1 -16.3470039 -3.9906244 -7.9512006
492 1 -10.08778 -6.3574038 -8.1408415
527 1 -10.3232489 -4.2603216 -10.2241192
886 1 -8.0492678 -6.1062508 -10.290369
929 1 -8.0527391 -4.1170788 -8.1521139
892 1 -5.9341316 -6.0704298 -8.0427332
927 1 -5.9438524 -4.1833696 -10.4562798
1286 1 -4.053607 -6.0278292 -10.3146305
1329 1 -3.976369 -3.981434 -8.1335716
1292 1 -2.1051159 -6.142725 -8.108942
1327 1 -2.038621 -4.084444 -10.1342602
1686 1 -0.0815125 -5.9113808 -10.2918797
1729 1 0.0311775 -4.1448526 -8.3205986
1727 1 1.993515 -4.253541 -10.2495241
1692 1 1.9759922 -6.1352911 -8.1648579
2086 1 4.0360298 -6.0368147 -10.1502724
2129 1 3.9317532 -3.9803314 -8.0721407
2127 1 6.1157112 -4.1684208 -9.9339582
2092 1 6.0872841 -6.250391 -8.1927548
2486 1 8.3010197 -6.2957688 -10.1245394
2492 1 9.9879018 -6.4262266 -8.1189079
2527 1 10.1154175 -4.2353649 -10.1259689
2529 1 8.2322369 -4.1644993 -8.0202684
2886 1 12.0447521 -6.2566404 -10.3160191
2892 1 14.1758175 -5.9866172 -8.1612225
2927 1 14.1932163 -4.1604977 -10.3347263
2929 1 12.4987393 -4.0924082 -8.1682482
3286 1 16.1654816 -5.9843302 -10.3841477
3292 1 18.2401352 -6.1707029 -8.2199574
3327 1 18.280819 -4.2772303 -10.3071156
3329 1 16.1604538 -4.1759358 -8.342082
86 1 24.2939987 -5.9204082 -10.2616959
3686 1 20.329422 -6.1138477 -10.2857943
3692 1 22.3933373 -6.1243448 -8.1828699
3727 1 22.4289551 -3.7393074 -10.1765757
3729 1 20.3277054 -4.1110754 -8.3217421
132 1 -14.2701664 -2.3416071 -8.0637264
167 1 -14.2512875 -0.2554703 -10.0504885
526 1 -12.3420982 -2.2581196 -10.1563988
569 1 -12.1182861 -0.2661305 -8.2461386
169 1 -16.2153225 -0.1452713 -7.9357606
126 1 -16.4252167 -2.1482067 -10.0219383
532 1 -10.1785774 -2.1752052 -8.1721277
567 1 -10.3018875 -0.1755371 -10.3660946
926 1 -8.2682362 -2.1391392 -10.0042114
969 1 -8.4558754 0.0521717 -8.2529192
932 1 -6.1382322 -2.0741558 -8.1283026
967 1 -6.1364756 0.0399189 -10.2406197
1326 1 -3.9378128 -1.9732286 -10.1310349
1369 1 -4.2427988 -0.0748138 -8.2065191
1332 1 -1.9879732 -2.1985273 -8.0914192
1367 1 -2.0670891 0.0879116 -10.2541399
1726 1 0.0893002 -2.1199827 -10.3296204
1769 1 0.040163 -0.1298733 -8.3043013
1767 1 2.1177635 0.0689983 -10.0666628
1732 1 1.96521 -1.994958 -8.0930128
2126 1 4.1560707 -1.9905882 -10.141572
2169 1 3.9921608 -0.1474361 -8.0852928
2167 1 6.1880493 -0.1827259 -10.1220894
2132 1 6.0693531 -2.0677433 -8.1196022
2526 1 8.2306843 -2.2326737 -9.9983712
2532 1 10.2257366 -2.1359949 -8.031909
2567 1 10.0656281 0.2046032 -10.213213
2569 1 7.9705048 -0.0965023 -7.937027
2572 1 10.1967392 1.9697018 -8.0231676
2926 1 11.9171124 -2.1564989 -10.1190662
2932 1 14.4457588 -1.96457 -8.1872006
2967 1 14.1152439 -0.0161209 -10.2103138
2969 1 12.2406407 -0.0014572 -8.1939802
3326 1 16.4397507 -1.8426896 -10.0608215
3332 1 18.1338196 -2.218297 -8.1231556
3367 1 18.3771286 0.0265217 -10.0743828
3369 1 16.0409431 0.1890431 -8.1668186
3726 1 20.2441368 -1.9659176 -10.2661076
3732 1 22.3261871 -2.0717869 -8.0353804
3767 1 22.3859444 -0.0834332 -9.9971868
3769 1 20.19067 -0.1056118 -8.1060419
566 1 -12.5115624 2.02668 -10.4371224
172 1 -14.2380047 1.9558564 -8.29601
207 1 -14.2331324 4.2224026 -10.4205809
212 1 -14.5394831 6.304945 -8.1619988
609 1 -12.4334383 4.1316872 -8.2286978
606 1 -12.3943052 6.1484299 -10.3149567
166 1 -16.3373203 1.8966312 -10.0664997
966 1 -8.2978068 2.1177635 -10.2838745
572 1 -10.536171 2.0892544 -8.2929878
607 1 -10.3180199 3.9563408 -10.2211781
1006 1 -8.5282116 6.0511761 -10.1376095
1009 1 -8.4645748 3.9681874 -8.1198473
612 1 -10.241396 5.961485 -8.0955849
1366 1 -4.2772713 2.0556393 -10.0586166
972 1 -6.3390646 2.0786343 -8.2397261
1007 1 -6.3672066 4.3073597 -9.9565048
1409 1 -4.1850033 4.0292072 -8.1633463
1012 1 -6.1354132 6.1032124 -7.8122463
1406 1 -4.1491013 6.0366764 -10.3120976
1372 1 -2.044013 1.9423772 -8.3234987
1407 1 -2.0861235 4.0324745 -10.203125
1766 1 -0.0686874 1.8809872 -10.2501373
1809 1 -0.1267262 3.892746 -8.2891884
1806 1 0.0968971 6.1415653 -10.228693
2172 1 5.9876652 2.0696888 -8.1692696
2166 1 4.1838856 1.783123 -10.3867207
1772 1 2.0654831 1.9015332 -8.3979168
1807 1 1.9350244 3.89291 -10.3684635
2209 1 3.9735356 3.9393902 -8.4031859
2207 1 6.1004753 3.9738636 -10.1564798
2212 1 5.8072129 6.1905384 -8.2965813
2206 1 3.9322434 6.2395115 -10.3963204
1812 1 2.0085869 6.0723763 -8.3250504
2566 1 8.2840691 2.1336517 -10.0508556
2607 1 10.1642265 4.1266232 -10.2784424
2609 1 7.9289246 4.0843887 -8.1301403
2612 1 10.1915512 6.1028061 -8.0850878
2606 1 8.1603088 6.2468224 -10.1846218
2966 1 12.1943245 2.1301403 -10.3477144
2972 1 13.99749 2.060091 -8.101263
3006 1 12.2524052 5.909897 -10.154316
3007 1 14.2017937 4.1180058 -10.2662697
3009 1 12.2913723 4.0921097 -8.1220932
3012 1 14.4139824 5.9582978 -8.1486836
3372 1 18.280941 2.0844746 -8.2849817
3366 1 16.1514702 1.8608914 -10.3864756
3406 1 16.2407951 6.1720772 -10.2043495
3407 1 18.2208176 4.056984 -10.3123436
3409 1 16.1468124 3.7499943 -8.3916264
3412 1 18.1678848 5.7977371 -8.2603932
206 1 24.3679276 6.0775623 -10.0361118
3766 1 20.364708 1.901123 -10.2698231
209 1 24.4107742 4.0457497 -8.1943483
3772 1 22.5918389 1.885931 -8.065197
3806 1 20.3000107 6.0259361 -10.302949
3807 1 22.341629 4.1112633 -10.246542
3809 1 20.5067292 3.9476414 -8.2836752
3812 1 22.3033562 6.0596733 -8.3774538
247 1 -14.3748551 8.0655098 -10.2758694
252 1 -14.2338181 10.1129665 -8.2949076
646 1 -12.243434 10.0186558 -10.3804722
649 1 -12.2702274 7.9105054 -7.957163
647 1 -10.5078659 8.1384983 -9.9179068
652 1 -10.6521282 10.03969 -8.2095823
1046 1 -8.3495979 10.0364227 -10.313364
1049 1 -8.231925 8.2495537 -8.1025295
1047 1 -6.3157425 8.0479469 -10.0633945
1052 1 -6.2483893 10.2679291 -8.1380234
1446 1 -4.168993 10.2416687 -10.0660915
1449 1 -4.2546024 7.965727 -8.1550551
1412 1 -2.0042295 6.0729485 -8.3173714
1447 1 -2.1397524 8.0561962 -10.1701222
1452 1 -2.1840687 10.0463905 -8.1412087
1846 1 -0.1501732 10.1943302 -10.1820078
1849 1 0.0031986 8.0238495 -7.9456044
1847 1 1.9079038 8.168602 -10.2782784
1852 1 1.847088 10.270464 -8.2197933