LAMMPS (17 Nov 2016)
Reading data file ...
  orthogonal box = (-16.3834 -16.3834 -16.3834) to (24.4612 24.4612 24.4612)
  1 by 1 by 1 MPI processor grid
  reading atoms ...
  4000 atoms
Reading potential file AlCu.eam.alloy with DATE: 2008-10-01
Neighbor list info ...
  1 neighbor list requests
  update every 1 steps, delay 10 steps, check yes
  max neighbors/atom: 2000, page size: 100000
  master list distance cutoff = 8.6825
  ghost atom cutoff = 8.6825
  binsize = 4.34125, bins = 10 10 10
Setting up Verlet run ...
  Unit style    : metal
  Current step  : 0
  Time step     : 0.001
Memory usage per processor = 4.06225 Mbytes
Step PotEng KinEng TotEng Enthalpy Temp Volume Press 
       0   -13110.992     155.0734   -12955.918   -12938.329          300    68140.154    413.57915 
    1000   -13110.033    158.24088   -12951.792   -12928.313    306.12772    68140.154    552.07084 
    2000   -13108.681    157.36411   -12951.317   -12921.478    304.43155    68140.154    701.60867 
    3000   -13111.439    156.05412   -12955.385   -12938.872    301.89728    68140.154    388.28047 
    4000   -13110.165     156.8367   -12953.328   -12929.636    303.41123    68140.154    557.07994 
    5000   -13107.847    157.46103   -12950.386   -12917.074    304.61905    68140.154    783.25429 
    6000   -13112.646    155.12605   -12957.519   -12946.697    300.10186    68140.154     254.4671 
    7000   -13109.364    156.23661   -12953.128   -12925.698    302.25031    68140.154    644.93828 
    8000   -13107.022    154.24774   -12952.774    -12917.04    298.40271    68140.154    840.22366 
    9000   -13112.097    153.96495   -12958.132   -12946.315    297.85564    68140.154     277.8578 
   10000   -13107.513     155.4812   -12952.032   -12915.004    300.78892    68140.154    870.64005 
   11000   -13110.234    153.06237   -12957.172   -12936.299    296.10954    68140.154    490.78587 
   12000   -13110.254    152.42236   -12957.832   -12937.175    294.87139    68140.154    485.71793 
   13000   -13108.385    155.14569    -12953.24   -12922.533    300.13985    68140.154    722.00111 
   14000   -13109.643    152.98977   -12956.653   -12933.323    295.96909    68140.154    548.56798 
   15000   -13111.623    153.69163   -12957.932    -12942.67    297.32688    68140.154    358.85039 
   16000   -13108.315    154.73068   -12953.584     -12923.1    299.33699    68140.154    716.75907 
   17000   -13111.019    154.96768   -12956.052   -12936.728    299.79548    68140.154    454.36008 
   18000   -13112.502     152.9069   -12959.595   -12948.231    295.80878    68140.154     267.2078 
   19000   -13109.757    155.66254   -12954.094   -12930.714    301.13975    68140.154    549.73825 
   20000   -13109.455    154.69056   -12954.764   -12930.335    299.25939    68140.154    574.39725 
   21000   -13110.746    151.26305   -12959.483   -12941.621    292.62862    68140.154     420.0033 
   22000    -13109.41    156.90974     -12952.5   -12926.389    303.55252    68140.154    613.94485 
   23000   -13107.752    153.34854   -12954.403   -12923.765    296.66316    68140.154    720.39247 
   24000   -13112.521    151.64954   -12960.871   -12950.458    293.37631    68140.154    244.84175 
   25000   -13112.363    153.92648   -12958.437   -12949.178    297.78122    68140.154    217.68891 
   26000    -13106.13    153.27378   -12952.856   -12914.024    296.51852    68140.154    913.05893 
   27000   -13111.452    155.69355   -12955.759    -12939.36    301.19974    68140.154    385.57174 
   28000   -13113.221    155.22129       -12958   -12946.683    300.28611    68140.154    266.08595 
   29000   -13110.443      158.405   -12952.038   -12929.823    306.44522    68140.154    522.34861 
   30000   -13113.524    156.70758   -12956.816   -12948.806    303.16144    68140.154    188.36039 
   31000    -13108.41    154.47437   -12953.936   -12925.739    298.84114    68140.154    662.99534 
   32000   -13108.438    156.62789    -12951.81   -12920.112    303.00727    68140.154    745.30377 
   33000   -13110.762    154.35628   -12956.405   -12938.677    298.61269    68140.154    416.84431 
   34000   -13108.244    153.64268   -12954.601   -12924.555    297.23219    68140.154    706.49193 
   35000   -13107.551    153.67949   -12953.871   -12920.013     297.3034    68140.154    796.10043 
   36000   -13113.178    155.00786    -12958.17   -12948.692    299.87322    68140.154    222.85624 
   37000   -13108.474    155.44657   -12953.027   -12922.962    300.72193    68140.154    706.90715 
   38000   -13109.714    156.14732   -12953.567   -12927.909    302.07757    68140.154     603.2826 
   39000   -13111.863    153.18417   -12958.678   -12944.019    296.34517    68140.154    344.68884 
   40000   -13109.229    155.80254   -12953.427   -12925.297    301.41057    68140.154    661.41813 
   41000   -13108.967    154.24316   -12954.724   -12932.163    298.39386    68140.154    530.48918 
   42000   -13111.729    152.24855   -12959.481    -12944.82    294.53515    68140.154    344.71599 
   43000   -13109.961    156.11603   -12953.845   -12930.944    302.01705    68140.154    538.47411 
   44000   -13109.128    154.36791    -12954.76   -12928.033    298.63519    68140.154    628.44014 
   45000    -13112.16    151.83999    -12960.32   -12948.249    293.74475    68140.154    283.84121 
   46000   -13106.803    152.61223    -12954.19   -12919.204     295.2387    68140.154    822.64303 
   47000   -13107.477    153.04507   -12954.432   -12921.897    296.07606    68140.154    764.98266 
   48000   -13113.742    154.01693   -12959.725   -12954.509     297.9562    68140.154    122.64753 
   49000   -13108.818    155.63874   -12953.179   -12925.454    301.09369    68140.154    651.90141 
   50000   -13109.354    155.17109   -12954.182    -12928.08    300.18899    68140.154    613.75249 
   51000   -13113.935    153.60099   -12960.334   -12957.763    297.15152    68140.154    60.442837 
   52000   -13109.979    153.34921    -12956.63   -12935.648    296.66444    68140.154     493.3466 
   53000   -13108.193    155.82413   -12952.369   -12923.625    301.45234    68140.154     675.8598 
   54000   -13110.124    152.23278   -12957.891   -12937.885    294.50463    68140.154    470.40676 
   55000   -13110.002    155.30817   -12954.694   -12931.368     300.4542    68140.154    548.45974 
   56000   -13108.039     155.0356   -12953.003   -12922.227    299.92687    68140.154    723.64511 
   57000   -13110.294     152.6417   -12957.652   -12939.254    295.29572    68140.154      432.601 
   58000   -13109.002    158.67846   -12950.323   -12921.998    306.97424    68140.154    665.99934 
   59000   -13110.531    156.41908   -12954.112   -12932.941    302.60331    68140.154    497.79139 
   60000    -13110.58    154.56087    -12956.02   -12936.239    299.00848    68140.154    465.10116 
Loop time of 808.963 on 1 procs for 60000 steps with 4000 atoms

Performance: 6.408 ns/day, 3.745 hours/ns, 74.169 timesteps/s
99.4% CPU use with 1 MPI tasks x no OpenMP threads

MPI task timing breakdown:
Section |  min time  |  avg time  |  max time  |%varavg| %total
---------------------------------------------------------------
Pair    | 798.76     | 798.76     | 798.76     |   0.0 | 98.74
Neigh   | 0.13826    | 0.13826    | 0.13826    |   0.0 |  0.02
Comm    | 3.0868     | 3.0868     | 3.0868     |   0.0 |  0.38
Output  | 0.10212    | 0.10212    | 0.10212    |   0.0 |  0.01
Modify  | 5.1294     | 5.1294     | 5.1294     |   0.0 |  0.63
Other   |            | 1.749      |            |       |  0.22

Nlocal:    4000 ave 4000 max 4000 min
Histogram: 1 0 0 0 0 0 0 0 0 0
Nghost:    8195 ave 8195 max 8195 min
Histogram: 1 0 0 0 0 0 0 0 0 0
Neighs:    318520 ave 318520 max 318520 min
Histogram: 1 0 0 0 0 0 0 0 0 0

Total # of neighbors = 318520
Ave neighs/atom = 79.63
Neighbor list builds = 12
Dangerous builds = 0
All done
Total wall time: 0:13:29
