# LAMMPS data file written by OVITO
4000 atoms
1 atom types
-16.4523602 24.5302181 xlo xhi
-16.4523602 24.5302181 ylo yhi
-16.4523602 24.5302181 zlo zhi

Atoms # atomic

8 1 -14.3766298 -14.1226807 -12.3596268
43 1 -14.4017639 -12.3099642 -14.3568144
402 1 -12.5119019 -14.4391194 -14.2187357
445 1 -12.3457832 -12.1376324 -12.4000845
2 1 24.4927616 -14.3795147 -14.5447769
441 1 -12.4524765 -12.4792347 -16.3199844
408 1 -10.5791874 -14.4041987 -12.2401714
443 1 -10.1710424 -11.9652186 -14.6447335
802 1 -8.2413368 -14.3017006 -14.438612
845 1 -8.4093657 -12.2924652 -12.4094734
404 1 -10.3872261 -14.4404764 -16.1831722
403 1 -10.5405007 24.4296475 -14.33284
841 1 -8.277401 -12.1568947 24.2442417
808 1 -6.5036345 -14.2011013 -12.3195953
843 1 -6.2202807 -12.4675827 -14.3831902
1202 1 -4.2537317 -14.1285334 -14.3588753
1245 1 -4.0624666 -12.6298294 -12.1621399
804 1 -6.2247067 -14.1814251 24.2835446
1241 1 -3.9105434 -12.1888599 24.3662472
1208 1 -2.0542374 -14.5555229 -12.3958149
1602 1 0.1627159 -14.3655605 -14.5716944
1645 1 -0.3716583 -12.5340729 -12.246974
1243 1 -2.0642786 -12.3557625 -14.3330937
1204 1 -2.0310411 -14.4050589 -16.2964649
1643 1 1.88509 -12.3379555 -14.4324188
1608 1 1.9363576 -14.1605654 -12.2632027
2002 1 4.0154877 -14.2225514 -14.3158608
2043 1 6.1031399 -12.2107449 -14.2151909
2008 1 6.3819428 -14.4722128 -12.5010863
2005 1 4.2213421 -16.4441662 -12.529028
2003 1 6.1629334 -16.34968 -14.2772265
2402 1 8.2759953 -14.2023506 -14.3734656
2408 1 10.2318058 -14.6948223 -12.3914051
2443 1 10.1937752 -12.1271401 -14.4789467
2445 1 8.2780018 -12.3127098 -12.224884
2441 1 8.0591984 -12.2316055 -16.453497
2802 1 12.0522118 -14.4504347 -14.2846642
2808 1 14.0521221 -14.2330628 -12.2289009
2843 1 14.4237499 -12.5409947 -14.6400938
2845 1 12.1492977 -12.3680973 -12.4054737
2804 1 14.2830143 -14.3182783 -16.4517594
3202 1 16.4868946 -14.4173298 -14.3535318
3208 1 18.3096371 -14.4322434 -12.326808
3243 1 18.1461964 -12.2328348 -14.3978586
3245 1 15.9801884 -12.4180269 -12.4235106
3204 1 18.1724262 -14.5268965 24.3927212
3203 1 18.3761921 24.4944401 -14.3768501
3241 1 16.3905048 -12.3023415 -16.4269943
45 1 -16.3734722 -12.2663584 -12.4874592
3602 1 20.2832356 -14.3095169 -14.3868055
3643 1 22.5891629 -12.3470125 -14.0743217
3645 1 20.2856121 -12.1953774 -12.273613
3608 1 22.3949413 -14.5909968 -12.3340206
3605 1 20.14258 24.4492359 -12.591691
41 1 24.2959614 -12.4723006 24.5092755
3604 1 22.5035458 -14.378109 -16.1820908
3641 1 20.3360996 -12.5179873 -16.3361187
3601 1 20.4117985 -16.4373112 -16.3987465
48 1 -14.3395157 -10.0994053 -12.4254284
83 1 -14.5476866 -8.1758471 -14.3476219
442 1 -12.4203015 -10.2516956 -14.5135117
485 1 -12.5121269 -8.1856823 -12.4390717
481 1 -12.4567595 -8.4672737 24.3534184
448 1 -10.319891 -10.1990337 -12.68225
483 1 -10.301899 -8.1411753 -14.4655123
842 1 -8.0204811 -10.3061209 -14.3147745
885 1 -8.0700703 -8.3726034 -12.356205
444 1 -10.1718216 -10.0752659 -16.4030285
881 1 -8.148962 -8.1501093 -16.1277161
848 1 -6.1149149 -10.4933701 -12.1577549
883 1 -5.9936066 -8.2416649 -14.2318096
1242 1 -4.0967274 -10.4649697 -14.1553068
1285 1 -4.161685 -8.4708386 -12.0449295
844 1 -6.013483 -10.4289875 24.4276791
1248 1 -2.2418966 -10.2202206 -12.246728
1283 1 -2.0832939 -8.5474768 -14.3686094
1642 1 -0.005682 -10.3318997 -14.3762398
1685 1 0.2569752 -8.3991194 -12.1654186
1681 1 0.1578388 -8.3964968 -16.3073444
1683 1 2.1946297 -8.4644451 -14.372941
1648 1 1.9791452 -10.4966908 -12.4356003
2042 1 3.9136868 -10.2053042 -14.4023581
2085 1 4.1183949 -8.3248596 -12.2695961
2044 1 6.3998127 -10.1675177 -16.1862888
2081 1 4.2015896 -8.1369534 24.3850575
2083 1 6.1919899 -8.1014633 -14.4172678
2048 1 5.9365444 -10.1514111 -12.300211
2442 1 8.1605873 -10.0868225 -14.2274113
2448 1 10.2276688 -10.1323958 -12.2605391
2483 1 10.1654968 -8.0124903 -14.1380205
2485 1 8.1481705 -7.9946214 -12.3093491
2444 1 10.0529194 -10.1614523 -16.3706265
2481 1 8.2668152 -8.2453938 -16.3647518
2842 1 12.5713368 -10.1535835 -14.6479664
2848 1 14.3482189 -10.2830887 -12.6307268
2883 1 14.6114922 -8.11343 -14.7970944
2885 1 12.3503609 -8.1767893 -12.6559353
2844 1 14.5187073 -10.3223086 24.4971028
2881 1 12.4362183 -8.2554751 -16.4356156
3242 1 16.5157032 -10.2096071 -14.4862538
3283 1 18.4251652 -7.9499102 -14.5416174
3285 1 16.2859173 -8.1015043 -12.5579987
3248 1 18.2879162 -10.386734 -12.2504158
3281 1 16.5473843 -7.957614 24.2789555
3244 1 18.5041409 -10.2639904 24.5188656
42 1 -16.4148083 -10.3823891 -14.3100739
85 1 24.4898892 -8.0728569 -12.327013
3642 1 20.3320866 -10.1810417 -14.3811665
3648 1 22.3537159 -10.275589 -12.2668915
3683 1 22.5870266 -8.2495747 -14.5127363
3685 1 20.4290905 -8.0996189 -12.0740681
3644 1 22.4337559 -10.2516556 24.5002194
88 1 -14.4423199 -6.266345 -12.4095726
123 1 -14.4255181 -4.2334461 -14.3652401
482 1 -12.5150948 -6.3388024 -14.5001917
525 1 -12.3517666 -4.3230744 -12.3915444
521 1 -12.2099667 -4.3527861 24.4992352
488 1 -10.328579 -6.2183542 -12.4130478
523 1 -10.3967333 -4.3458605 -14.5052452
882 1 -8.086504 -6.2494192 -14.2479477
925 1 -8.2093706 -4.3509426 -12.394392
484 1 -10.1880913 -6.4733076 24.307806
888 1 -6.0724974 -6.146102 -12.1733685
923 1 -6.3208113 -4.2774601 -14.6538277
1282 1 -4.2740183 -6.1396265 -14.5037785
1325 1 -4.3329916 -3.8974296 -12.4594803
1288 1 -2.2978382 -6.5336333 -12.4300919
1323 1 -2.2811175 -4.0400076 -14.4832945
1682 1 0.0090714 -6.536912 -14.3732405
1725 1 -0.1883011 -4.463645 -12.5892239
1723 1 1.8136978 -3.9693938 -14.5572195
1688 1 2.276268 -6.3492937 -12.1318131
2082 1 3.7620106 -6.1504049 -14.4835739
2125 1 4.0236835 -4.2608633 -12.3893108
2088 1 5.841097 -6.2113056 -12.193779
2123 1 6.1339188 -4.1052933 -14.3271675
2084 1 6.2754707 -6.0881119 -16.3073807
1684 1 1.9583664 -6.2776156 -16.1313515
2121 1 4.2430229 -4.139432 -16.2706795
2482 1 8.1131706 -6.0748339 -14.2048101
2488 1 10.1328335 -5.9056578 -12.3374224
2523 1 10.4041786 -4.2571335 -14.4627953
2525 1 8.2000542 -3.9680424 -12.300169
2484 1 10.4309807 -6.1492167 24.4634571
2521 1 8.2198486 -4.2850018 -16.3895989
2882 1 12.5032654 -6.3227778 -14.5403795
2888 1 14.4446106 -6.2057324 -12.5809202
2923 1 14.5051003 -4.0295162 -14.4602137
2925 1 12.3256054 -4.1631193 -12.4513417
2921 1 12.3606053 -4.1344729 24.4845219
2884 1 14.4801426 -6.0468426 24.3116169
3282 1 16.5708714 -5.8946744 -14.5462523
3288 1 18.6920452 -5.8383646 -12.4969511
3323 1 18.4695492 -4.1963568 -14.6954289
3325 1 16.2679234 -3.868742 -12.523942
3284 1 18.6754055 -6.0522938 24.196825
82 1 -16.373827 -6.2154446 -14.6229058
125 1 -16.3820133 -4.02841 -12.2533665
3682 1 20.4676571 -6.3031063 -14.5790463
3688 1 22.2637196 -6.2683125 -12.6567459
3723 1 22.5340367 -4.3694258 -14.7333708
3725 1 20.4984341 -4.0316477 -12.3511524
121 1 -16.4521027 -4.1911106 24.3945637
3684 1 22.4917851 -6.3036804 -16.4103108
3721 1 20.5146618 -4.0650072 -16.407177
128 1 -14.3584786 -2.0636225 -12.4536495
163 1 -14.2065563 -0.1739159 -14.7869549
522 1 -12.4897795 -2.1565304 -14.3533106
565 1 -12.418293 -0.0799027 -12.1011581
561 1 -12.1973028 0.0663242 -16.4209442
124 1 -14.5637274 -2.2588644 24.3478069
528 1 -10.360054 -2.2581263 -12.3697577
563 1 -10.386528 -0.1141224 -14.2821312
922 1 -8.5001011 -2.1944809 -14.3643589
965 1 -8.552886 0.0335369 -12.2598839
524 1 -10.5117722 -2.0514097 24.3565769
961 1 -8.4069882 -0.1153526 -16.3292313
963 1 -6.4207678 -0.0403538 -14.4185295
1322 1 -4.3993845 -2.0562458 -14.4001293
1365 1 -4.2793865 -0.014986 -12.2590637
928 1 -6.5560103 -2.3474274 -12.4868164
924 1 -6.4499884 -1.9878054 24.3675175
1362 1 -4.4848328 1.9757844 -14.292779
1328 1 -1.9667808 -2.1005487 -12.4887953
1363 1 -2.5032835 -0.1877689 -14.2803774
1722 1 -0.2533398 -2.2261591 -14.2759104
1765 1 -0.1024838 -0.1187134 -12.3153734
1324 1 -2.1806698 -1.9718218 24.3754254
1761 1 -0.3858776 -0.1035481 -16.3572273
1763 1 1.8194771 -0.272028 -14.8202658
1728 1 1.7798462 -2.3033295 -12.4309817
2122 1 3.954628 -1.9975596 -14.2857304
2165 1 3.882908 0.0345631 -12.349226
2128 1 6.076952 -1.9269056 -12.6092644
2163 1 6.1299 0.09202 -14.4680615
1724 1 1.9086552 -2.2780438 24.2779713
2161 1 4.1701946 0.0139484 24.4879666
2522 1 8.3081665 -2.2963219 -14.5117321
2528 1 10.064476 -2.0221081 -12.3605824
2563 1 10.0495987 0.0864868 -14.4976511
2565 1 7.9395276 -0.054781 -12.3619347
2524 1 10.2315598 -2.3293133 24.5271855
2561 1 8.3197231 -0.2103081 24.5019818
2922 1 12.2110195 -2.208374 -14.379633
2928 1 14.0882664 -2.0166159 -12.2750054
2963 1 14.2473602 0.0191937 -14.1580658
2965 1 12.0459003 -0.1371555 -12.2509079
2924 1 14.3461285 -2.1256294 -16.4514694
3322 1 16.2304249 -1.9748956 -14.4769383
3328 1 18.597662 -2.2956658 -12.4094906
3363 1 18.5546704 -0.1095734 -14.4700537
3365 1 16.5943508 -0.2002258 -12.3292675
3765 1 20.2967205 -0.0176907 -12.3812781
3324 1 18.5058613 -2.0297709 24.5144406
3361 1 16.431242 -0.0033474 24.4900952
165 1 -16.2810707 -0.063755 -12.6058579
122 1 -16.3803692 -2.2474699 -14.497901
3722 1 20.5079022 -2.0600157 -14.3131428
3728 1 22.544981 -2.1667767 -12.575265
3763 1 22.4391651 0.1728783 -14.4226446
161 1 24.445467 -0.2258816 -16.3983421
3761 1 20.3762646 -0.0345345 24.2739544
3724 1 22.4326496 -2.0149364 -16.3925095
168 1 -14.3535643 1.8743114 -12.3721962
562 1 -12.4049702 2.2473755 -14.351593
203 1 -14.4724798 3.7985249 -14.3354788
605 1 -12.535286 4.123642 -12.2077122
602 1 -12.5649128 6.0555191 -14.2131662
202 1 24.3745251 6.1714974 -14.4388819
201 1 24.3849774 3.7910671 24.4201374
164 1 -14.3572531 2.2735233 24.3626003
962 1 -8.5161667 2.1019287 -14.3061476
568 1 -10.4767723 2.2507362 -12.4151993
603 1 -10.4125519 4.2767506 -14.2523375
1005 1 -8.3276053 4.1102371 -12.1900902
1002 1 -8.3033018 6.0344524 -14.3634949
608 1 -10.6202116 6.0882645 -12.4076052
564 1 -10.4359532 2.0120945 -16.3889694
1001 1 -8.233222 3.950079 24.3332577
968 1 -6.2347889 1.9003774 -12.2307854
1003 1 -6.5178547 3.7738114 -14.4124889
1405 1 -4.3446312 3.8463516 -12.5570069
1402 1 -4.2383633 6.0056419 -14.3601017
1008 1 -6.2878618 6.1732197 -12.1747627
1004 1 -6.2674923 6.0288811 -16.3888207
1762 1 -0.1059265 1.8688202 -14.5154743
1368 1 -1.954445 1.8225899 -12.3073406
1403 1 -2.2732897 3.777174 -14.3735066
1805 1 -0.4280911 4.0472069 -12.5334549
1408 1 -2.3290663 6.1246548 -12.3591271
1804 1 2.0112743 6.1573601 24.5085392
2162 1 3.8630734 1.9455396 -14.5081301
2164 1 6.0896969 1.8307057 24.4044438
1768 1 1.8957044 1.8530408 -12.5047093
1808 1 1.7705841 6.0556412 -12.2167702
1803 1 2.019062 4.0778618 -14.2893772
2205 1 4.0274544 3.8820878 -12.5308647
2168 1 6.0473213 1.828001 -12.2776699
2201 1 3.8335247 4.0392151 -16.3849621
2203 1 6.0869942 4.0214291 -14.4959584
2202 1 3.7468872 6.1633434 -14.3135853
1764 1 1.8954182 2.1106987 -16.4450684
2204 1 6.0866241 6.1943665 -16.2013741
2208 1 6.0181828 6.0311737 -12.480362
2568 1 10.0756626 2.156189 -12.273489
2562 1 8.1533337 2.1422138 -14.1799707
2603 1 10.3145104 4.0673313 -14.3911657
2605 1 8.1994381 3.9754066 -12.2349243
2608 1 10.463358 6.1596947 -12.4880581
2564 1 10.0387383 2.0836926 24.4345646
2968 1 14.020359 1.783535 -12.0856257
2962 1 11.9340592 2.05443 -14.4392872
3003 1 14.1872807 3.9049168 -13.9614764
3005 1 12.0587692 4.0373306 -12.2403755
3008 1 13.9529018 6.1338348 -12.3615284
3001 1 12.3953591 3.9071294 -16.3560124
2964 1 14.3094502 1.8227558 -16.3277493
3368 1 18.2938175 2.1757374 -12.4215317
3362 1 16.1615734 1.9935704 -14.2875462
3403 1 18.2178745 3.8839742 -14.4020186
3405 1 16.2098942 3.8988914 -12.3885231
3408 1 18.3604946 5.9797802 -12.3540211
3402 1 16.1679287 5.8953992 -14.1765366
3401 1 16.2895641 3.8002472 24.5051785
3364 1 18.3338986 1.979023 24.3852215
3404 1 18.0618534 5.902897 -16.3848763
205 1 24.39604 4.0604858 -12.2434492
162 1 -16.3678303 2.0424633 -14.3305531
3762 1 20.1286068 2.0041428 -14.4691029
3768 1 22.3843289 2.0135708 -12.4705868
3803 1 22.3792057 3.9476204 -14.5400315
3805 1 20.400938 3.8513508 -12.4667721
3808 1 22.3099041 5.7996235 -12.122715
3802 1 20.1656132 6.0567894 -14.3320036
3801 1 20.2833157 4.0552387 -16.4237805
3804 1 22.3635922 6.2108822 24.5059567
3764 1 22.3953953 1.8195572 -16.4159622
208 1 -14.5894804 5.9229374 -12.2541456
243 1 -14.6098042 8.0328045 -14.3952236
248 1 -14.4414349 10.0660725 -12.4375477
642 1 -12.4335804 10.3872528 -14.3469296
645 1 -12.3760319 8.3062401 -12.5719452
242 1 24.3989086 10.0665245 -14.3982191
245 1 24.5014477 7.9175606 -12.4228754
244 1 -14.4967661 10.2713127 -16.3264942
643 1 -10.2749329 7.915102 -14.2080965
648 1 -10.2369022 10.0804157 -12.1655407
1042 1 -8.4473562 9.8131695 -14.1315575
1045 1 -8.2959261 8.1385803 -12.073576
644 1 -10.1613293 9.8437824 -16.3724098
1043 1 -6.2326164 7.9607162 -14.4252224
1048 1 -6.2592554 10.0807056 -12.1387386
1442 1 -4.290616 10.0990238 -14.1680651
1445 1 -4.1959877 8.3663197 -12.1905003
1441 1 -4.2588539 8.1362038 -16.3125782
1044 1 -6.1658974 10.3279915 -16.3782215
1802 1 -0.1365814 6.1633835 -14.3860598
1443 1 -2.2983713 8.0158787 -14.3704615
1448 1 -2.1311207 10.0748844 -12.4100361
1842 1 -0.0489998 10.1668072 -14.1234474
1845 1 -0.0519924 8.1128426 -12.2853747
1843 1 1.9595146 8.127842 -14.1800728
1848 1 2.0136509 10.2132836 -11.9766942
2242 1 3.9106122 10.1437759 -13.9304152
2245 1 4.0188465 8.0412464 -12.3518067
2248 1 6.1098595 10.2823372 -12.5389672
2243 1 5.9930592 8.1241531 -14.2273712
2602 1 8.070797 6.0215416 -14.2059364
2642 1 8.283535 10.1933231 -14.4003096
2643 1 10.3226643 8.4055824 -14.4032974
2645 1 8.1941528 8.1537457 -12.5267248
2648 1 10.3061905 10.2255364 -12.3473816
2641 1 8.1188679 8.328495 -16.2939091
3002 1 12.3043366 6.0928116 -14.5093718
3042 1 12.3980637 10.1903324 -14.5043602
3043 1 14.4933377 8.1652603 -14.4745617
3045 1 12.3961773 8.3142719 -12.4811154
3048 1 14.3747349 10.2084045 -12.5014553
3041 1 12.3836784 8.2944374 24.4902172
3442 1 16.4420185 10.3090572 -14.5384283
3443 1 18.2768498 8.053297 -14.172905
3445 1 16.2365742 7.946619 -12.3544016
3448 1 18.380743 10.1446781 -12.604518
3444 1 18.4784451 10.219265 24.4864483
3842 1 20.4047871 10.2980747 -14.2800045
3843 1 22.1638432 8.0914078 -14.3027382
3845 1 20.408804 8.0370255 -12.3919411
3848 1 22.3200283 9.9693966 -12.3486519
3844 1 22.4538746 9.9935742 -16.2663651
283 1 -14.6655483 12.1314316 -14.4780445
288 1 -14.3342371 14.2612133 -12.313448
682 1 -12.2990217 14.375063 -14.5439406
685 1 -12.2152538 12.3799496 -12.5644131
285 1 24.320837 12.1453228 -12.4315186
282 1 -16.4068909 14.2937527 -14.4827824
681 1 -12.3477097 12.2009792 24.2742024
683 1 -10.2510405 11.9204922 -14.4081984
688 1 -10.2900562 14.326376 -12.2794733
1082 1 -8.3916197 14.2869911 -14.411026
1085 1 -8.0601931 12.1536446 -12.2548018
1083 1 -6.2535582 12.2982712 -14.2069531
1482 1 -4.1161938 14.2583046 -14.3854485
1485 1 -4.1607418 12.0142632 -12.3004151
1088 1 -6.1012268 14.2438774 -12.3131199
1481 1 -4.2123804 12.2915497 -16.3622799
1483 1 -1.9624778 12.2058964 -14.2254734
1488 1 -2.1533737 14.3438339 -12.2966442
1882 1 0.0634956 14.2259693 -14.3900108
1885 1 -0.0188789 12.5450688 -12.3430367
1883 1 1.9600468 12.0347519 -14.2847061
1888 1 1.8798848 14.2151489 -12.3336105
2282 1 3.8631954 14.2477303 -14.1625528
2285 1 3.919384 12.1642151 -11.931572
2288 1 5.9364644 14.3803902 -12.4927874
2283 1 6.0574017 12.332983 -14.2297516
2284 1 6.1519909 14.4811669 -16.3319054
2281 1 4.0381088 12.4408894 -16.0714703
2682 1 8.1845207 14.2512131 -14.3255615
2683 1 10.3042221 12.2047062 -14.2804966
2685 1 8.4641457 12.1354885 -12.3302498
2688 1 10.3793011 14.3377686 -12.3307839
2684 1 10.3048782 14.4296112 -16.4430352
3082 1 12.5621567 14.3799801 -14.3533716
3083 1 14.2606812 12.3356876 -14.6627655
3085 1 12.5397396 12.3204842 -12.2528343
3088 1 14.6116143 14.1994934 -12.3058663
3081 1 12.2188454 12.6188374 -16.39184
3482 1 16.408083 14.1848621 -14.537158
3483 1 18.3591824 12.2888451 -14.5691166
3485 1 16.630579 12.2771244 -12.522852
3488 1 18.4196759 14.4367428 -12.4830828
281 1 -16.3926506 12.3542938 24.4421063
3882 1 20.5759335 14.5400582 -14.4717951
3883 1 22.4941616 12.2867966 -14.2594233
3885 1 20.3451176 12.1671677 -12.481185
3888 1 22.2573261 14.2579346 -12.1517716
3884 1 22.6196118 14.388464 -16.3842907
3881 1 20.4206066 12.3622456 24.5223484
323 1 -14.3166599 16.2873516 -14.4653282
328 1 -14.3415775 18.4100437 -12.4283381
722 1 -12.554966 18.5350819 -14.5067082
725 1 -12.4618578 16.2657948 -12.2802925
322 1 24.5133763 18.4166851 -14.3749781
325 1 -16.3395748 16.4241085 -12.5580235
723 1 -10.3335791 16.3534145 -14.3164635
728 1 -10.2630072 18.3672161 -12.340209
1122 1 -8.5099364 18.6650372 -14.505106
1125 1 -8.3234663 16.195509 -12.326808
1123 1 -6.3940067 16.44026 -14.4345589
1128 1 -6.3298273 18.4025021 -12.3287754
1522 1 -4.3020086 18.2530384 -14.5027247
1525 1 -3.8880024 16.400053 -12.4638863
1523 1 -2.1781273 16.3244801 -14.6067629
1922 1 -0.0604763 18.5276242 -14.4613734
1925 1 1.5258789e-05 16.5155812 -12.3084479
1528 1 -2.0411634 18.482378 -12.4684973
1923 1 2.2660217 16.373209 -14.4701481
1928 1 1.8038216 18.6521282 -12.0745602
2322 1 4.0083961 18.7543812 -14.4777823
2325 1 3.8505326 16.6620541 -12.43853
2323 1 6.1447372 16.4046002 -14.3507452
2328 1 6.2336693 18.5036068 -12.3882046
2722 1 8.4393521 18.3478756 -14.2858658
2723 1 10.3489342 16.3525143 -14.3673515
2725 1 8.0790749 16.2344036 -12.2682438
2728 1 10.4022122 18.3077107 -12.4040184
3122 1 12.23946 18.0943966 -14.4014607
3123 1 14.5342407 16.3249722 -14.3587532
3125 1 12.4551525 16.1989918 -12.0591917
3128 1 14.1448231 18.5722103 -12.4550553
3124 1 14.0932255 18.5786457 -16.2526455
3522 1 16.2146053 18.2848415 -14.4608736
3523 1 18.2544346 16.3148899 -14.4690695
3525 1 16.2940312 16.3356686 -12.3186112
3528 1 18.3402081 18.5192623 -12.4840374
3521 1 16.2869396 16.3753796 24.4222279
3524 1 18.2149258 18.5408192 -16.2969113
3922 1 20.8180981 18.5761891 -14.3998709
3923 1 22.6258793 16.3395214 -14.4240132
3925 1 20.4761791 16.6238995 -12.5310974
3928 1 22.736166 18.5807362 -12.194025
3924 1 22.500475 18.3057423 -16.4230652
3921 1 20.3416348 16.4973469 -16.3694458
321 1 -16.3456535 16.26264 24.387106
405 1 -12.3859215 24.2554722 -12.3034067
5 1 -16.4181824 -16.2589302 -12.4525223
3 1 -14.4401894 24.4926358 -14.4477797
363 1 -14.4884501 20.3594227 -14.513114
368 1 -14.4379273 22.4095745 -12.435215
762 1 -12.7700138 22.4945736 -14.5659571
765 1 -12.1290264 20.2023754 -12.2105408
362 1 24.4150143 22.3921986 -14.440136
365 1 -16.3844967 20.6508885 -12.3347588
805 1 -8.2435503 24.4835377 -12.2886524
763 1 -10.4012823 20.5728169 -14.2104368
768 1 -10.1007977 22.4833851 -12.1168957
1162 1 -8.3919068 22.4770298 -14.3323889
1165 1 -8.1350279 20.565115 -12.4711895
1205 1 -4.5803213 -16.2730694 -12.1504593
803 1 -6.4306851 -16.2244816 -14.6040745
1163 1 -6.399416 20.3469219 -14.45889
1168 1 -6.3479824 22.4985905 -12.4591694
1562 1 -4.4468823 22.4199848 -14.4628077
1565 1 -4.3237715 20.3987217 -12.395855
1201 1 -4.2254944 -16.3203831 24.4903012
1561 1 -4.1133661 20.4261418 -16.413826
1605 1 -0.0928535 24.4752598 -12.2415238
1203 1 -2.3427544 -16.3616963 -14.4753237
1563 1 -2.2237826 20.5441304 -14.5324002
1568 1 -2.3953762 22.4894924 -12.4289074
1962 1 -0.0291252 22.5817433 -14.1866627
1965 1 -0.1362934 20.5327778 -12.4960375
1603 1 2.1836472 24.426981 -14.5780545
1963 1 2.031971 20.8105183 -14.531765
1968 1 2.1973362 22.1696606 -12.2415238
2362 1 4.0885162 22.5123997 -14.5467606
2365 1 4.3306008 20.2596264 -12.1960325
2368 1 6.21945 22.6532574 -12.7002039
2363 1 6.3392391 20.1806164 -14.5138312
2364 1 6.0907211 22.393713 24.445055
2403 1 10.0247211 -16.4054985 -14.7385874
2405 1 8.345995 24.4566555 -12.3476677
2762 1 8.26124 22.5273991 -14.445386
2763 1 10.2131577 20.43606 -14.2813778
2765 1 8.1759987 20.3986416 -12.3586712
2768 1 10.4133587 22.7926388 -12.3162346
2805 1 12.3480225 -16.3580666 -12.295538
2803 1 14.2966232 -16.3310566 -14.3108359
3162 1 12.0062294 22.6751423 -14.5066757
3163 1 14.215231 20.5377751 -14.399272
3165 1 12.1665115 20.4303189 -12.5803957
3168 1 14.0879402 22.6566601 -12.4027615
3161 1 12.0765553 20.2453251 -16.3734913
3164 1 14.1649456 22.3211765 -16.4152603
3205 1 16.2523937 24.4698925 -12.2904568
3563 1 18.3365612 20.684824 -14.3532076
3562 1 16.1888294 22.6588307 -14.2921972
3565 1 16.128664 20.5028172 -12.3798847
3568 1 18.2673016 22.4067059 -12.3627205
3603 1 22.4708004 -16.2676468 -14.360138
3962 1 20.6183491 22.4732609 -14.4418373
3963 1 22.7547322 20.5138836 -14.5577927
3965 1 20.3492146 20.4321652 -12.2941456
3968 1 22.5094509 22.2381878 -12.2987347
12 1 -14.4964094 -14.5112324 -8.1374865
47 1 -14.3451061 -12.2586947 -10.4271832
406 1 -12.6327095 -14.2219772 -10.2161636
449 1 -12.4170637 -12.2560721 -8.2455168
9 1 24.312109 -16.1856594 -8.6631298
412 1 -10.5457058 -14.2029781 -8.3209248
447 1 -10.3246861 -12.402401 -10.17346
806 1 -8.4226027 -14.5519896 -10.2359181
849 1 -8.2058048 -12.2981205 -8.2979336
407 1 -10.2598105 24.5279637 -10.3475552
809 1 -8.4397745 24.5060368 -8.3208017
812 1 -6.2368784 -14.7325669 -8.1572399
847 1 -6.2151995 -12.6931229 -10.0089149
1206 1 -4.1603737 -14.7481203 -9.9976444
1249 1 -4.0408678 -12.5858994 -7.9201146
1209 1 -4.3728266 24.3424778 -8.0664635
1212 1 -2.0588694 -14.5954809 -8.197649
1247 1 -2.1227608 -12.3717785 -10.2010412
1606 1 -0.1985474 -14.4715243 -10.3218575
1649 1 -0.1555557 -12.5447531 -8.2189598
1207 1 -2.2362824 24.4204693 -10.1241589
2045 1 3.9282342 -12.1408701 -12.3547297
1612 1 1.7192326 -14.5284577 -8.1003161
1647 1 1.9096794 -12.4994803 -10.1789112
2006 1 4.0959358 -14.5619974 -10.293334
2049 1 4.0785999 -12.6390791 -8.2276888
2012 1 6.1467457 -14.5876732 -8.3789148
2047 1 6.0955162 -12.4841891 -10.3372269
2406 1 8.1567345 -14.3713627 -10.4300938
2412 1 10.0098839 -14.1073818 -8.1247416
2447 1 10.0926304 -12.3468485 -10.2588272
2449 1 8.1671448 -12.2222614 -8.3805132
2806 1 12.0792599 -14.4147473 -9.9758016
2812 1 14.2878513 -14.6401634 -8.1332655
2847 1 14.1894531 -12.5324459 -10.0233412
2849 1 12.1457748 -12.4675951 -8.1410112
3206 1 16.293005 -14.5579119 -10.4422245
3212 1 18.3469715 -14.4748364 -8.255599
3247 1 18.113493 -12.4047775 -10.1263304
3249 1 16.373579 -12.3070545 -8.2455988
3209 1 16.2824726 -16.2802048 -8.2988348
3207 1 18.3126698 24.4856701 -10.2807942
49 1 24.4865284 -12.5341101 -8.1679373
6 1 -16.4010353 -14.3198605 -10.5476723
3606 1 20.4849491 -14.6194268 -10.342144
3612 1 22.4269505 -14.4359846 -8.242156
3647 1 22.527113 -12.5119343 -10.310875
3649 1 20.2081127 -12.3813229 -8.5276413
3609 1 20.3046284 -16.3610897 -8.3053923
52 1 -14.6263981 -10.5960732 -8.3076878
87 1 -14.7596569 -8.3359652 -10.230835
446 1 -12.4155722 -10.4039459 -10.302515
489 1 -12.5544338 -8.3340397 -8.4314547
452 1 -10.3668575 -10.2912035 -8.1920757
487 1 -10.4807072 -8.4235049 -10.6549235
846 1 -8.5267391 -10.4475928 -10.4272242
889 1 -8.6692353 -8.3509245 -8.2515001
852 1 -6.1558151 -10.5683689 -8.1778956
887 1 -6.403924 -8.2992859 -10.0772743
1246 1 -4.3435249 -10.6076699 -9.8685914
1289 1 -4.174799 -8.086504 -8.184535
1252 1 -2.2470608 -10.3394394 -8.1793709
1287 1 -2.0730896 -8.4268646 -10.209156
1646 1 -0.134449 -10.5801296 -10.0925608
1689 1 -0.223217 -8.450758 -8.3166628
1687 1 2.2778664 -8.4309216 -10.1426411
1652 1 2.0657806 -10.4563637 -8.1633053
2046 1 3.9297924 -10.400094 -10.324522
2089 1 4.1021233 -8.1699038 -8.0818729
2052 1 6.0383453 -10.5112801 -8.3320723
2087 1 6.0313377 -8.4287091 -10.1091175
2446 1 8.0785389 -10.5102139 -10.3313255
2452 1 10.2230778 -10.2014513 -8.4694042
2487 1 10.2457008 -7.9958096 -10.6334896
2489 1 8.1214085 -8.1637573 -8.3526449
2846 1 12.435318 -10.1198139 -10.2412453
2852 1 14.3762112 -10.0557575 -8.3597765
2887 1 14.3742027 -8.2801476 -10.532713
2889 1 12.2195034 -8.1982231 -8.2982617
3246 1 16.3875942 -10.2407532 -10.3040314
3252 1 18.4275036 -10.12006 -8.3437929
3287 1 18.380537 -8.188674 -10.3230877
3289 1 16.400137 -8.0712996 -8.1831827
46 1 24.3111668 -10.493084 -10.4393959
89 1 24.3737049 -8.2919912 -8.131381
3646 1 20.4135571 -10.3342343 -10.1078472
3652 1 22.402525 -10.4807072 -8.0561771
3687 1 22.4140835 -8.3149004 -10.0375214
3689 1 20.3696652 -8.0213833 -8.1581421
92 1 -14.4032354 -6.1646671 -8.3683005
127 1 -14.4283085 -4.2180357 -10.3459149
486 1 -12.1462803 -6.3588019 -10.2600155
529 1 -12.5265246 -3.9550506 -8.0818729
492 1 -10.6790219 -6.0206947 -7.9430656
527 1 -10.359931 -4.3682785 -10.1825581
886 1 -8.3349409 -6.3273268 -10.2700558
929 1 -8.1778545 -4.1867256 -8.330925
892 1 -6.3745394 -6.2261 -8.4243241
927 1 -6.1714706 -4.0709085 -10.4688626
1286 1 -4.2714768 -6.4115057 -10.3917332
1329 1 -4.2606983 -4.0896788 -8.4257994
1292 1 -2.3359108 -6.2384768 -8.2505989
1327 1 -2.1356707 -4.3714752 -10.7298813
1686 1 -0.1041222 -6.1474962 -10.3526764
1729 1 -0.1769486 -4.2260685 -8.4564133
1727 1 2.1152077 -4.2053309 -10.3897667
1692 1 1.8741474 -6.266304 -8.477232
2086 1 4.0302811 -6.1263495 -10.1233387
2127 1 6.0506821 -4.0079594 -10.2011643
2129 1 4.264988 -4.2425842 -8.219944
2092 1 6.010313 -6.2830658 -8.3214169
2486 1 8.0196495 -6.1574135 -10.2975149
2492 1 10.1231213 -6.1604462 -8.4204302
2527 1 10.086113 -4.0675478 -10.1664524
2529 1 8.1112042 -4.1097193 -8.2759266
2886 1 12.2676983 -6.1943798 -10.3105879
2892 1 14.3213349 -6.2799521 -8.4932976
2927 1 14.3805962 -4.1200876 -10.4597645
2929 1 12.2763462 -4.2805748 -8.2968273
3286 1 16.4298039 -6.3445397 -10.5190659
3292 1 18.4350834 -6.1699133 -8.1228151
3327 1 18.2878742 -4.1800451 -10.2969408
3329 1 16.2144032 -4.4554062 -8.2969093
129 1 24.466898 -4.3047543 -8.362071
86 1 24.2503071 -6.3660965 -10.3746033
3686 1 20.409338 -6.1706925 -10.2428846
3692 1 22.5026455 -6.1659374 -8.1066675
3727 1 22.5828076 -4.3821297 -10.4941082
3729 1 20.2886028 -4.1454973 -8.366703
132 1 -14.6203814 -2.1268597 -8.4422331
167 1 -14.6892729 0.0935764 -10.2645235
526 1 -12.4152355 -2.150506 -10.3630867
569 1 -12.4871073 -0.0908451 -8.1897402
169 1 24.320879 -0.2185059 -8.1937971
532 1 -10.4171429 -2.1569405 -8.4672737
567 1 -10.3525133 -0.0060921 -10.1700592
926 1 -8.384202 -2.212513 -10.3862009
969 1 -8.3681364 -0.0186329 -8.3324413
932 1 -6.2522469 -2.0132961 -8.1649456
967 1 -6.4919548 -0.0736313 -10.2165327
1326 1 -4.3336887 -1.9735022 -10.28899
1369 1 -4.1620541 -0.028223 -8.2698603
1332 1 -2.3053379 -2.115056 -8.4802246
1367 1 -2.1693583 -0.1986694 -10.2545643
1726 1 0.1247654 -2.1671038 -10.248991
1769 1 -0.0719929 0.0176773 -8.3424816
1732 1 2.1188946 -2.2150536 -8.3689976
1767 1 1.8516464 -0.0020771 -10.1130934
2126 1 4.0369205 -2.1557522 -10.5343933
2169 1 4.0540524 -0.0329781 -8.2273207
2132 1 6.1333027 -2.1177616 -8.2270336
2167 1 5.9260942 -0.2283821 -10.4231262
2526 1 7.941578 -2.1190319 -10.2894821
2532 1 10.1419716 -1.9748546 -8.2960072
2567 1 10.0743923 0.0771427 -10.1857548
2569 1 8.2336178 -0.0353127 -8.1584282
2926 1 12.2155666 -2.2916498 -10.129076
2932 1 14.2363358 -2.3217726 -8.3019915
2967 1 14.0286369 -0.2135468 -10.2687855
2969 1 12.0769653 -0.1881771 -8.2816639
3326 1 16.1817799 -1.7205992 -10.3373909
3332 1 18.0569363 -2.1530056 -8.6182537
3367 1 18.3468495 0.0317345 -10.346448
3369 1 16.1610851 -0.1994476 -8.0607262
126 1 -16.2950707 -1.959609 -10.3430872
3726 1 20.5171223 -2.2007093 -10.3653412
3732 1 22.4665814 -2.3514433 -8.3721123
3767 1 22.2885952 -0.240963 -10.5484505
3769 1 20.3274937 -0.3525181 -8.1062994
172 1 -15.0440426 2.0034065 -8.3916197
166 1 24.0596142 1.9560318 -10.4292317
566 1 -12.3597908 1.9318104 -10.3070641
207 1 -14.7960902 3.7034874 -10.3496857
606 1 -12.485447 6.041748 -10.2852612
212 1 -14.3384743 6.3756333 -8.3267031
609 1 -12.7603588 4.0131512 -8.4913712
209 1 24.2139149 3.8980714 -8.3233843
966 1 -8.2665825 1.9799232 -10.3618984
572 1 -10.0986261 2.0488548 -8.4456349
607 1 -10.2615729 4.1164284 -10.368578
1009 1 -8.2650662 3.927826 -8.0951519
612 1 -10.3528004 6.0856819 -8.0564642
1006 1 -8.2683029 5.8957254 -10.129117
972 1 -6.2189694 1.7153816 -8.268754
1366 1 -4.2186098 1.8525906 -10.2187462
1007 1 -6.1258984 3.9286042 -10.191246
1012 1 -6.0323353 6.1856785 -8.0906439
1409 1 -4.1923409 3.967619 -8.0790463
1406 1 -4.2214785 5.8713838 -10.2028036
1766 1 -0.1358852 2.2083187 -10.0553894
1372 1 -2.0871058 2.1160259 -8.211174
1407 1 -2.3728361 4.1419602 -10.46206
1809 1 0.0109158 4.0265522 -8.1731825
1806 1 -0.2628079 5.873064 -10.151001
1412 1 -2.0646067 6.0357647 -8.1294537
1772 1 2.1275425 2.0037346 -8.2704754
1807 1 2.0818882 4.0685596 -10.4013233
2166 1 3.9140148 2.0778294 -10.1221914
2209 1 4.0635185 4.198803 -8.2757616
2206 1 4.1577778 6.0528946 -10.5095587
2172 1 5.8827362 2.0712318 -8.268713
2212 1 6.023838 6.0476894 -8.2515412
1812 1 2.1175842 6.0721149 -8.1742897
2207 1 6.16572 4.1076164 -10.1154699
2572 1 9.9959508 2.0875435 -8.0718737
2566 1 8.0180492 2.0892639 -10.1795254
2607 1 10.0959091 3.9844628 -10.2539091
2609 1 7.946619 4.1045017 -7.9896622
2612 1 10.2900028 6.165268 -8.419775
2606 1 8.2721424 6.0041256 -10.4190693
2966 1 12.0322533 2.0550442 -10.0820274
2972 1 14.1215019 1.872385 -8.242116
3007 1 14.2360096 4.0337238 -10.4017744
3009 1 12.2700329 3.999218 -8.2006416
3006 1 12.1630287 6.1745319 -10.4107494
3012 1 14.3152695 6.0624428 -8.3983412
3366 1 16.3255482 1.920826 -10.2453442
3372 1 18.1857891 1.9170152 -7.9957276
3407 1 18.3152104 3.7933617 -10.1669035
3409 1 16.404398 3.7075844 -8.281868
3406 1 16.2385006 5.9915428 -10.3839874
3412 1 17.9976368 5.7967129 -8.2337141
3772 1 22.2148266 1.8252964 -8.0508909
3766 1 20.2394238 1.8890248 -10.0823975
3807 1 22.1415501 3.9490548 -10.2793179
3809 1 20.0706577 3.7362309 -8.2354355
3806 1 19.8460712 6.2269077 -10.0671921
3812 1 22.3380604 6.3344059 -8.2957201
206 1 24.280798 5.9910108 -10.2537451
247 1 -14.4148903 8.3605023 -10.4533711
252 1 -14.5417977 10.2772141 -8.3919888
646 1 -12.4409237 10.4666767 -10.2243195
246 1 -16.4133911 9.9850102 -10.3752175
249 1 24.3047314 8.1410408 -8.4225617
649 1 -12.264843 8.0511646 -8.2717047
647 1 -10.488657 7.976946 -10.2688265
652 1 -10.3270626 10.0780392 -8.4517412
1046 1 -8.1113806 10.1838989 -10.2380905
1049 1 -8.224493 8.1577606 -8.5609188
1047 1 -6.0039339 8.1041966 -10.2169438
1052 1 -6.1447907 10.4666767 -8.3004341