LAMMPS (17 Nov 2016)
Reading data file ...
  orthogonal box = (-16.4524 -16.4524 -16.4524) to (24.5302 24.5302 24.5302)
  1 by 1 by 1 MPI processor grid
  reading atoms ...
  4000 atoms
Reading potential file AlCu.eam.alloy with DATE: 2008-10-01
Neighbor list info ...
  1 neighbor list requests
  update every 1 steps, delay 10 steps, check yes
  max neighbors/atom: 2000, page size: 100000
  master list distance cutoff = 8.6825
  ghost atom cutoff = 8.6825
  binsize = 4.34125, bins = 10 10 10
Setting up Verlet run ...
  Unit style    : metal
  Current step  : 0
  Time step     : 0.001
Memory usage per processor = 4.06328 Mbytes
Step PotEng KinEng TotEng Enthalpy Temp Volume Press 
       0   -13050.527    206.76453   -12843.762   -12832.482          400     68833.18    262.56544 
    1000   -13051.975    209.26563    -12842.71   -12838.919    404.83856     68833.18     88.22362 
    2000   -13048.719    210.04449   -12838.674   -12815.616    406.34531     68833.18    536.71527 
    3000   -13050.194    202.86092   -12847.333   -12837.491    392.44821     68833.18    229.07566 
    4000    -13048.09    205.34359   -12842.746   -12820.947    397.25111     68833.18    507.41289 
    5000   -13047.072    205.27473   -12841.797   -12817.153    397.11789     68833.18    573.62581 
    6000   -13052.148    206.08942   -12846.058   -12844.886    398.69396     68833.18    27.302192 
    7000   -13055.612    206.14589   -12849.466   -12858.288    398.80321     68833.18   -205.34919 
    8000   -13049.123    209.17707   -12839.946   -12820.721    404.66723     68833.18    447.49548 
    9000   -13050.841    205.47813   -12845.363   -12836.867    397.51138     68833.18    197.74441 
   10000   -13053.871    205.67785   -12848.193   -12852.996    397.89775     68833.18   -111.79928 
   11000   -13051.794    208.22129   -12843.573   -12836.133    402.81821     68833.18    173.15894 
   12000   -13050.383    210.70915   -12839.673   -12823.638    407.63113     68833.18    373.23677 
   13000   -13053.323    205.18955   -12848.133   -12851.152    396.95309     68833.18   -70.259534 
   14000   -13050.705    208.29624   -12842.409   -12830.257     402.9632     68833.18     282.8626 
   15000   -13050.331    209.42297   -12840.908    -12822.49    405.14295     68833.18    428.70378 
   16000    -13051.35    205.16213   -12846.188   -12839.742    396.90004     68833.18    150.04362 
   17000   -13050.905    199.40698   -12851.498   -12844.676    385.76632     68833.18    158.79315 
   18000   -13047.869    206.35118   -12841.518    -12819.25    399.20035     68833.18    518.32398 
   19000   -13050.676    207.60521   -12843.071   -12831.453    401.62635     68833.18    270.41701 
   20000   -13055.617    205.32391   -12850.293   -12863.393    397.21303     68833.18   -304.91364 
   21000   -13051.228     211.0503   -12840.178   -12828.423    408.29112     68833.18     273.6104 
   22000   -13047.737    202.38019   -12845.357   -12825.188     391.5182     68833.18    469.45846 
   23000    -13050.48    204.55482   -12845.925   -12835.345    395.72517     68833.18    246.26309 
   24000   -13047.975    209.67508     -12838.3   -12813.761    405.63066     68833.18    571.18987 
   25000   -13050.343    204.30293    -12846.04   -12833.644    395.23788     68833.18    288.52894 
   26000   -13048.669    204.62702   -12844.042   -12823.871    395.86485     68833.18    469.49525 
   27000   -13048.124    207.39944   -12840.724   -12817.696    401.22828     68833.18    535.99998 
   28000   -13047.063     210.4627     -12836.6   -12808.725    407.15436     68833.18    648.81931 
   29000   -13051.451    205.81658   -12845.634   -12837.388    398.16613     68833.18    191.94367 
   30000   -13050.167    209.14439   -12841.022   -12825.127    404.60401     68833.18    369.97567 
   31000   -13048.539    211.32598   -12837.213   -12813.095    408.82444     68833.18    561.38218 
   32000   -13047.539    204.78476   -12842.755   -12820.168       396.17     68833.18    525.72527 
   33000   -13052.251    206.79898   -12845.452   -12841.343    400.06665     68833.18    95.646624 
   34000   -13045.397    205.44874   -12839.948   -12808.788    397.45452     68833.18    725.27515 
   35000   -13049.966    208.64296   -12841.323   -12826.834    403.63395     68833.18    337.24708 
   36000   -13049.678    203.46931   -12846.209   -12834.905    393.62518     68833.18    263.11878 
   37000   -13048.709    208.91685   -12839.792   -12819.628    404.16381     68833.18     469.3535 
   38000    -13050.52    209.03842   -12841.482   -12830.596    404.39899     68833.18    253.37231 
   39000   -13053.941    206.50843   -12847.433   -12848.523    399.50456     68833.18   -25.381486 
   40000   -13046.773    207.85252    -12838.92   -12808.015     402.1048     68833.18    719.34948 
   41000   -13049.979    208.08826    -12841.89   -12829.329    402.56085     68833.18    292.38325 
   42000   -13051.364    207.72494   -12843.639   -12835.688    401.85798     68833.18    185.06062 
   43000    -13046.39    203.02332   -12843.367   -12813.592    392.76239     68833.18    693.03971 
   44000   -13053.012    212.23282   -12840.779    -12836.88    410.57879     68833.18    90.757883 
   45000   -13052.575    205.81868   -12846.756   -12845.085     398.1702     68833.18    38.893594 
   46000   -13050.142    206.17618   -12843.966    -12834.02     398.8618     68833.18     231.4904 
   47000   -13046.077    205.81927   -12840.258   -12811.138    398.17133     68833.18    677.78653 
   48000   -13053.062    206.04854   -12847.014   -12846.422    398.61487     68833.18    13.766888 
   49000   -13048.523    211.81256    -12836.71   -12815.178    409.76576     68833.18    501.17796 
   50000   -13047.633    205.53321     -12842.1   -12819.988    397.61793     68833.18    514.68334 
   51000   -13047.622    201.97601   -12845.646   -12824.777     390.7363     68833.18     485.7555 
   52000   -13045.289    209.74076   -12835.548   -12800.179    405.75772     68833.18    823.26431 
   53000   -13048.929    208.25478   -12840.674   -12818.324    402.88299     68833.18    520.24343 
   54000   -13049.522    204.55742   -12844.965   -12830.232     395.7302     68833.18    342.91417 
   55000   -13050.878    207.35334   -12843.525   -12836.698     401.1391     68833.18    158.89742 
   56000   -13047.358    208.89767    -12838.46   -12812.347    404.12671     68833.18    607.80852 
   57000   -13051.431    203.89388   -12847.537   -12844.362    394.44653     68833.18    73.890216 
   58000   -13050.091    206.55659   -12843.534   -12828.594    399.59773     68833.18     347.7531 
   59000   -13049.497    207.35793   -12842.139   -12827.802    401.14798     68833.18    333.72246 
   60000   -13045.273    201.95629   -12843.317   -12811.336    390.69815     68833.18     744.3808 
Loop time of 753.574 on 1 procs for 60000 steps with 4000 atoms

Performance: 6.879 ns/day, 3.489 hours/ns, 79.621 timesteps/s
99.4% CPU use with 1 MPI tasks x no OpenMP threads

MPI task timing breakdown:
Section |  min time  |  avg time  |  max time  |%varavg| %total
---------------------------------------------------------------
Pair    | 737.07     | 737.07     | 737.07     |   0.0 | 97.81
Neigh   | 6.7884     | 6.7884     | 6.7884     |   0.0 |  0.90
Comm    | 2.933      | 2.933      | 2.933      |   0.0 |  0.39
Output  | 0.10202    | 0.10202    | 0.10202    |   0.0 |  0.01
Modify  | 4.9996     | 4.9996     | 4.9996     |   0.0 |  0.66
Other   |            | 1.683      |            |       |  0.22

Nlocal:    4000 ave 4000 max 4000 min
Histogram: 1 0 0 0 0 0 0 0 0 0
Nghost:    8191 ave 8191 max 8191 min
Histogram: 1 0 0 0 0 0 0 0 0 0
Neighs:    314160 ave 314160 max 314160 min
Histogram: 1 0 0 0 0 0 0 0 0 0

Total # of neighbors = 314160
Ave neighs/atom = 78.54
Neighbor list builds = 579
Dangerous builds = 0
All done
Total wall time: 0:12:33
