ITEM: TIMESTEP
0
ITEM: NUMBER OF ATOMS
4000
ITEM: BOX BOUNDS pp pp pp
-1.6155717899999999e+01 2.4233575800000001e+01
-1.6155717899999999e+01 2.4233575800000001e+01
-1.6155717899999999e+01 2.4233575800000001e+01
ITEM: ATOMS id type xs ys zs
1 1 0 0 0
2 1 0 0.05 0.05
3 1 0.05 0 0.05
4 1 0.05 0.05 0
5 1 0 0 0.1
8 1 0.05 0.05 0.1
41 1 0 0.1 0
43 1 0.05 0.1 0.05
45 1 0 0.1 0.1
401 1 0.1 0 0
402 1 0.1 0.05 0.05
405 1 0.1 0 0.1
441 1 0.1 0.1 0
445 1 0.1 0.1 0.1
403 1 0.15 0 0.05
404 1 0.15 0.05 0
408 1 0.15 0.05 0.1
443 1 0.15 0.1 0.05
801 1 0.2 0 0
802 1 0.2 0.05 0.05
805 1 0.2 0 0.1
841 1 0.2 0.1 0
845 1 0.2 0.1 0.1
803 1 0.25 0 0.05
804 1 0.25 0.05 0
808 1 0.25 0.05 0.1
843 1 0.25 0.1 0.05
1201 1 0.3 0 0
1202 1 0.3 0.05 0.05
1205 1 0.3 0 0.1
1241 1 0.3 0.1 0
1245 1 0.3 0.1 0.1
1203 1 0.35 0 0.05
1204 1 0.35 0.05 0
1208 1 0.35 0.05 0.1
1243 1 0.35 0.1 0.05
1601 1 0.4 0 0
1602 1 0.4 0.05 0.05
1605 1 0.4 0 0.1
1641 1 0.4 0.1 0
1645 1 0.4 0.1 0.1
1603 1 0.45 0 0.05
1604 1 0.45 0.05 0
1608 1 0.45 0.05 0.1
1643 1 0.45 0.1 0.05
2001 1 0.5 0 0
2002 1 0.5 0.05 0.05
2003 1 0.55 0 0.05
2004 1 0.55 0.05 0
2005 1 0.5 0 0.1
2008 1 0.55 0.05 0.1
2041 1 0.5 0.1 0
2043 1 0.55 0.1 0.05
2045 1 0.5 0.1 0.1
2401 1 0.6 0 0
2402 1 0.6 0.05 0.05
2403 1 0.65 0 0.05
2404 1 0.65 0.05 0
2405 1 0.6 0 0.1
2408 1 0.65 0.05 0.1
2441 1 0.6 0.1 0
2443 1 0.65 0.1 0.05
2445 1 0.6 0.1 0.1
2801 1 0.7 0 0
2802 1 0.7 0.05 0.05
2803 1 0.75 0 0.05
2804 1 0.75 0.05 0
2805 1 0.7 0 0.1
2808 1 0.75 0.05 0.1
2841 1 0.7 0.1 0
2843 1 0.75 0.1 0.05
2845 1 0.7 0.1 0.1
3201 1 0.8 0 0
3202 1 0.8 0.05 0.05
3203 1 0.85 0 0.05
3204 1 0.85 0.05 0
3205 1 0.8 0 0.1
3208 1 0.85 0.05 0.1
3241 1 0.8 0.1 0
3243 1 0.85 0.1 0.05
3245 1 0.8 0.1 0.1
3601 1 0.9 0 0
3602 1 0.9 0.05 0.05
3603 1 0.95 0 0.05
3604 1 0.95 0.05 0
3605 1 0.9 0 0.1
3608 1 0.95 0.05 0.1
3641 1 0.9 0.1 0
3643 1 0.95 0.1 0.05
3645 1 0.9 0.1 0.1
42 1 0 0.15 0.05
44 1 0.05 0.15 0
48 1 0.05 0.15 0.1
81 1 0 0.2 0
83 1 0.05 0.2 0.05
85 1 0 0.2 0.1
442 1 0.1 0.15 0.05
481 1 0.1 0.2 0
485 1 0.1 0.2 0.1
444 1 0.15 0.15 0
448 1 0.15 0.15 0.1
483 1 0.15 0.2 0.05
842 1 0.2 0.15 0.05
881 1 0.2 0.2 0
885 1 0.2 0.2 0.1
844 1 0.25 0.15 0
848 1 0.25 0.15 0.1
883 1 0.25 0.2 0.05
1242 1 0.3 0.15 0.05
1281 1 0.3 0.2 0
1285 1 0.3 0.2 0.1
1244 1 0.35 0.15 0
1248 1 0.35 0.15 0.1
1283 1 0.35 0.2 0.05
1642 1 0.4 0.15 0.05
1681 1 0.4 0.2 0
1685 1 0.4 0.2 0.1
1644 1 0.45 0.15 0
1648 1 0.45 0.15 0.1
1683 1 0.45 0.2 0.05
2042 1 0.5 0.15 0.05
2044 1 0.55 0.15 0
2048 1 0.55 0.15 0.1
2081 1 0.5 0.2 0
2083 1 0.55 0.2 0.05
2085 1 0.5 0.2 0.1
2442 1 0.6 0.15 0.05
2444 1 0.65 0.15 0
2448 1 0.65 0.15 0.1
2481 1 0.6 0.2 0
2483 1 0.65 0.2 0.05
2485 1 0.6 0.2 0.1
2842 1 0.7 0.15 0.05
2844 1 0.75 0.15 0
2848 1 0.75 0.15 0.1
2881 1 0.7 0.2 0
2883 1 0.75 0.2 0.05
2885 1 0.7 0.2 0.1
3242 1 0.8 0.15 0.05
3244 1 0.85 0.15 0
3248 1 0.85 0.15 0.1
3281 1 0.8 0.2 0
3283 1 0.85 0.2 0.05
3285 1 0.8 0.2 0.1
3642 1 0.9 0.15 0.05
3644 1 0.95 0.15 0
3648 1 0.95 0.15 0.1
3681 1 0.9 0.2 0
3683 1 0.95 0.2 0.05
3685 1 0.9 0.2 0.1
82 1 0 0.25 0.05
84 1 0.05 0.25 0
88 1 0.05 0.25 0.1
121 1 0 0.3 0
123 1 0.05 0.3 0.05
125 1 0 0.3 0.1
482 1 0.1 0.25 0.05
521 1 0.1 0.3 0
525 1 0.1 0.3 0.1
484 1 0.15 0.25 0
488 1 0.15 0.25 0.1
523 1 0.15 0.3 0.05
882 1 0.2 0.25 0.05
921 1 0.2 0.3 0
925 1 0.2 0.3 0.1
884 1 0.25 0.25 0
888 1 0.25 0.25 0.1
923 1 0.25 0.3 0.05
1282 1 0.3 0.25 0.05
1321 1 0.3 0.3 0
1325 1 0.3 0.3 0.1
1284 1 0.35 0.25 0
1288 1 0.35 0.25 0.1
1323 1 0.35 0.3 0.05
1682 1 0.4 0.25 0.05
1721 1 0.4 0.3 0
1725 1 0.4 0.3 0.1
1684 1 0.45 0.25 0
1688 1 0.45 0.25 0.1
1723 1 0.45 0.3 0.05
2082 1 0.5 0.25 0.05
2084 1 0.55 0.25 0
2088 1 0.55 0.25 0.1
2121 1 0.5 0.3 0
2123 1 0.55 0.3 0.05
2125 1 0.5 0.3 0.1
2482 1 0.6 0.25 0.05
2484 1 0.65 0.25 0
2488 1 0.65 0.25 0.1
2521 1 0.6 0.3 0
2523 1 0.65 0.3 0.05
2525 1 0.6 0.3 0.1
2882 1 0.7 0.25 0.05
2884 1 0.75 0.25 0
2888 1 0.75 0.25 0.1
2921 1 0.7 0.3 0
2923 1 0.75 0.3 0.05
2925 1 0.7 0.3 0.1
3282 1 0.8 0.25 0.05
3284 1 0.85 0.25 0
3288 1 0.85 0.25 0.1
3321 1 0.8 0.3 0
3323 1 0.85 0.3 0.05
3325 1 0.8 0.3 0.1
3682 1 0.9 0.25 0.05
3684 1 0.95 0.25 0
3688 1 0.95 0.25 0.1
3721 1 0.9 0.3 0
3723 1 0.95 0.3 0.05
3725 1 0.9 0.3 0.1
122 1 0 0.35 0.05
124 1 0.05 0.35 0
128 1 0.05 0.35 0.1
161 1 0 0.4 0
163 1 0.05 0.4 0.05
165 1 0 0.4 0.1
522 1 0.1 0.35 0.05
561 1 0.1 0.4 0
565 1 0.1 0.4 0.1
524 1 0.15 0.35 0
528 1 0.15 0.35 0.1
563 1 0.15 0.4 0.05
922 1 0.2 0.35 0.05
961 1 0.2 0.4 0
965 1 0.2 0.4 0.1
924 1 0.25 0.35 0
928 1 0.25 0.35 0.1
963 1 0.25 0.4 0.05
1322 1 0.3 0.35 0.05
1361 1 0.3 0.4 0
1365 1 0.3 0.4 0.1
1324 1 0.35 0.35 0
1328 1 0.35 0.35 0.1
1363 1 0.35 0.4 0.05
1722 1 0.4 0.35 0.05
1761 1 0.4 0.4 0
1765 1 0.4 0.4 0.1
1724 1 0.45 0.35 0
1728 1 0.45 0.35 0.1
1763 1 0.45 0.4 0.05
2122 1 0.5 0.35 0.05
2124 1 0.55 0.35 0
2128 1 0.55 0.35 0.1
2161 1 0.5 0.4 0
2163 1 0.55 0.4 0.05
2165 1 0.5 0.4 0.1
2522 1 0.6 0.35 0.05
2524 1 0.65 0.35 0
2528 1 0.65 0.35 0.1
2561 1 0.6 0.4 0
2563 1 0.65 0.4 0.05
2565 1 0.6 0.4 0.1
2922 1 0.7 0.35 0.05
2924 1 0.75 0.35 0
2928 1 0.75 0.35 0.1
2961 1 0.7 0.4 0
2963 1 0.75 0.4 0.05
2965 1 0.7 0.4 0.1
3322 1 0.8 0.35 0.05
3324 1 0.85 0.35 0
3328 1 0.85 0.35 0.1
3361 1 0.8 0.4 0
3363 1 0.85 0.4 0.05
3365 1 0.8 0.4 0.1
3722 1 0.9 0.35 0.05
3724 1 0.95 0.35 0
3728 1 0.95 0.35 0.1
3761 1 0.9 0.4 0
3763 1 0.95 0.4 0.05
3765 1 0.9 0.4 0.1
162 1 0 0.45 0.05
164 1 0.05 0.45 0
168 1 0.05 0.45 0.1
201 1 0 0.5 0
202 1 0 0.55 0.05
203 1 0.05 0.5 0.05
204 1 0.05 0.55 0
205 1 0 0.5 0.1
208 1 0.05 0.55 0.1
562 1 0.1 0.45 0.05
601 1 0.1 0.5 0
602 1 0.1 0.55 0.05
605 1 0.1 0.5 0.1
564 1 0.15 0.45 0
568 1 0.15 0.45 0.1
603 1 0.15 0.5 0.05
604 1 0.15 0.55 0
608 1 0.15 0.55 0.1
962 1 0.2 0.45 0.05
1001 1 0.2 0.5 0
1002 1 0.2 0.55 0.05
1005 1 0.2 0.5 0.1
964 1 0.25 0.45 0
968 1 0.25 0.45 0.1
1003 1 0.25 0.5 0.05
1004 1 0.25 0.55 0
1008 1 0.25 0.55 0.1
1362 1 0.3 0.45 0.05
1401 1 0.3 0.5 0
1402 1 0.3 0.55 0.05
1405 1 0.3 0.5 0.1
1364 1 0.35 0.45 0
1368 1 0.35 0.45 0.1
1403 1 0.35 0.5 0.05
1404 1 0.35 0.55 0
1408 1 0.35 0.55 0.1
1762 1 0.4 0.45 0.05
1801 1 0.4 0.5 0
1802 1 0.4 0.55 0.05
1805 1 0.4 0.5 0.1
1764 1 0.45 0.45 0
1768 1 0.45 0.45 0.1
1803 1 0.45 0.5 0.05
1804 1 0.45 0.55 0
1808 1 0.45 0.55 0.1
2162 1 0.5 0.45 0.05
2164 1 0.55 0.45 0
2168 1 0.55 0.45 0.1
2201 1 0.5 0.5 0
2202 1 0.5 0.55 0.05
2203 1 0.55 0.5 0.05
2204 1 0.55 0.55 0
2205 1 0.5 0.5 0.1
2208 1 0.55 0.55 0.1
2562 1 0.6 0.45 0.05
2564 1 0.65 0.45 0
2568 1 0.65 0.45 0.1
2601 1 0.6 0.5 0
2602 1 0.6 0.55 0.05
2603 1 0.65 0.5 0.05
2604 1 0.65 0.55 0
2605 1 0.6 0.5 0.1
2608 1 0.65 0.55 0.1
2962 1 0.7 0.45 0.05
2964 1 0.75 0.45 0
2968 1 0.75 0.45 0.1
3001 1 0.7 0.5 0
3002 1 0.7 0.55 0.05
3003 1 0.75 0.5 0.05
3004 1 0.75 0.55 0
3005 1 0.7 0.5 0.1
3008 1 0.75 0.55 0.1
3362 1 0.8 0.45 0.05
3364 1 0.85 0.45 0
3368 1 0.85 0.45 0.1
3401 1 0.8 0.5 0
3402 1 0.8 0.55 0.05
3403 1 0.85 0.5 0.05
3404 1 0.85 0.55 0
3405 1 0.8 0.5 0.1
3408 1 0.85 0.55 0.1
3762 1 0.9 0.45 0.05
3764 1 0.95 0.45 0
3768 1 0.95 0.45 0.1
3801 1 0.9 0.5 0
3802 1 0.9 0.55 0.05
3803 1 0.95 0.5 0.05
3804 1 0.95 0.55 0
3805 1 0.9 0.5 0.1
3808 1 0.95 0.55 0.1
241 1 0 0.6 0
242 1 0 0.65 0.05
243 1 0.05 0.6 0.05
244 1 0.05 0.65 0
245 1 0 0.6 0.1
248 1 0.05 0.65 0.1
641 1 0.1 0.6 0
642 1 0.1 0.65 0.05
645 1 0.1 0.6 0.1
643 1 0.15 0.6 0.05
644 1 0.15 0.65 0
648 1 0.15 0.65 0.1
1041 1 0.2 0.6 0
1042 1 0.2 0.65 0.05
1045 1 0.2 0.6 0.1
1043 1 0.25 0.6 0.05
1044 1 0.25 0.65 0
1048 1 0.25 0.65 0.1
1441 1 0.3 0.6 0
1442 1 0.3 0.65 0.05
1445 1 0.3 0.6 0.1
1443 1 0.35 0.6 0.05
1444 1 0.35 0.65 0
1448 1 0.35 0.65 0.1
1841 1 0.4 0.6 0
1842 1 0.4 0.65 0.05
1845 1 0.4 0.6 0.1
1843 1 0.45 0.6 0.05
1844 1 0.45 0.65 0
1848 1 0.45 0.65 0.1
2241 1 0.5 0.6 0
2242 1 0.5 0.65 0.05
2243 1 0.55 0.6 0.05
2244 1 0.55 0.65 0
2245 1 0.5 0.6 0.1
2248 1 0.55 0.65 0.1
2641 1 0.6 0.6 0
2642 1 0.6 0.65 0.05
2643 1 0.65 0.6 0.05
2644 1 0.65 0.65 0
2645 1 0.6 0.6 0.1
2648 1 0.65 0.65 0.1
3041 1 0.7 0.6 0
3042 1 0.7 0.65 0.05
3043 1 0.75 0.6 0.05
3044 1 0.75 0.65 0
3045 1 0.7 0.6 0.1
3048 1 0.75 0.65 0.1
3441 1 0.8 0.6 0
3442 1 0.8 0.65 0.05
3443 1 0.85 0.6 0.05
3444 1 0.85 0.65 0
3445 1 0.8 0.6 0.1
3448 1 0.85 0.65 0.1
3841 1 0.9 0.6 0
3842 1 0.9 0.65 0.05
3843 1 0.95 0.6 0.05
3844 1 0.95 0.65 0
3845 1 0.9 0.6 0.1
3848 1 0.95 0.65 0.1
281 1 0 0.7 0
282 1 0 0.75 0.05
283 1 0.05 0.7 0.05
284 1 0.05 0.75 0
285 1 0 0.7 0.1
288 1 0.05 0.75 0.1
681 1 0.1 0.7 0
682 1 0.1 0.75 0.05
685 1 0.1 0.7 0.1
683 1 0.15 0.7 0.05
684 1 0.15 0.75 0
688 1 0.15 0.75 0.1
1081 1 0.2 0.7 0
1082 1 0.2 0.75 0.05
1085 1 0.2 0.7 0.1
1083 1 0.25 0.7 0.05
1084 1 0.25 0.75 0
1088 1 0.25 0.75 0.1
1481 1 0.3 0.7 0
1482 1 0.3 0.75 0.05
1485 1 0.3 0.7 0.1
1483 1 0.35 0.7 0.05
1484 1 0.35 0.75 0
1488 1 0.35 0.75 0.1
1881 1 0.4 0.7 0
1882 1 0.4 0.75 0.05
1885 1 0.4 0.7 0.1
1883 1 0.45 0.7 0.05
1884 1 0.45 0.75 0
1888 1 0.45 0.75 0.1
2281 1 0.5 0.7 0
2282 1 0.5 0.75 0.05
2283 1 0.55 0.7 0.05
2284 1 0.55 0.75 0
2285 1 0.5 0.7 0.1
2288 1 0.55 0.75 0.1
2681 1 0.6 0.7 0
2682 1 0.6 0.75 0.05
2683 1 0.65 0.7 0.05
2684 1 0.65 0.75 0
2685 1 0.6 0.7 0.1
2688 1 0.65 0.75 0.1
3081 1 0.7 0.7 0
3082 1 0.7 0.75 0.05
3083 1 0.75 0.7 0.05
3084 1 0.75 0.75 0
3085 1 0.7 0.7 0.1
3088 1 0.75 0.75 0.1
3481 1 0.8 0.7 0
3482 1 0.8 0.75 0.05
3483 1 0.85 0.7 0.05
3484 1 0.85 0.75 0
3485 1 0.8 0.7 0.1
3488 1 0.85 0.75 0.1
3881 1 0.9 0.7 0
3882 1 0.9 0.75 0.05
3883 1 0.95 0.7 0.05
3884 1 0.95 0.75 0
3885 1 0.9 0.7 0.1
3888 1 0.95 0.75 0.1
321 1 0 0.8 0
322 1 0 0.85 0.05
323 1 0.05 0.8 0.05
324 1 0.05 0.85 0
325 1 0 0.8 0.1
328 1 0.05 0.85 0.1
721 1 0.1 0.8 0
722 1 0.1 0.85 0.05
725 1 0.1 0.8 0.1
723 1 0.15 0.8 0.05
724 1 0.15 0.85 0
728 1 0.15 0.85 0.1
1121 1 0.2 0.8 0
1122 1 0.2 0.85 0.05
1125 1 0.2 0.8 0.1
1123 1 0.25 0.8 0.05
1124 1 0.25 0.85 0
1128 1 0.25 0.85 0.1
1521 1 0.3 0.8 0
1522 1 0.3 0.85 0.05
1525 1 0.3 0.8 0.1
1523 1 0.35 0.8 0.05
1524 1 0.35 0.85 0
1528 1 0.35 0.85 0.1
1921 1 0.4 0.8 0
1922 1 0.4 0.85 0.05
1925 1 0.4 0.8 0.1
1923 1 0.45 0.8 0.05
1924 1 0.45 0.85 0
1928 1 0.45 0.85 0.1
2321 1 0.5 0.8 0
2322 1 0.5 0.85 0.05
2323 1 0.55 0.8 0.05
2324 1 0.55 0.85 0
2325 1 0.5 0.8 0.1
2328 1 0.55 0.85 0.1
2721 1 0.6 0.8 0
2722 1 0.6 0.85 0.05
2723 1 0.65 0.8 0.05
2724 1 0.65 0.85 0
2725 1 0.6 0.8 0.1
2728 1 0.65 0.85 0.1
3121 1 0.7 0.8 0
3122 1 0.7 0.85 0.05
3123 1 0.75 0.8 0.05
3124 1 0.75 0.85 0
3125 1 0.7 0.8 0.1
3128 1 0.75 0.85 0.1
3521 1 0.8 0.8 0
3522 1 0.8 0.85 0.05
3523 1 0.85 0.8 0.05
3524 1 0.85 0.85 0
3525 1 0.8 0.8 0.1
3528 1 0.85 0.85 0.1
3921 1 0.9 0.8 0
3922 1 0.9 0.85 0.05
3923 1 0.95 0.8 0.05
3924 1 0.95 0.85 0
3925 1 0.9 0.8 0.1
3928 1 0.95 0.85 0.1
361 1 0 0.9 0
362 1 0 0.95 0.05
363 1 0.05 0.9 0.05
364 1 0.05 0.95 0
365 1 0 0.9 0.1
368 1 0.05 0.95 0.1
761 1 0.1 0.9 0
762 1 0.1 0.95 0.05
765 1 0.1 0.9 0.1
763 1 0.15 0.9 0.05
764 1 0.15 0.95 0
768 1 0.15 0.95 0.1
1161 1 0.2 0.9 0
1162 1 0.2 0.95 0.05
1165 1 0.2 0.9 0.1
1163 1 0.25 0.9 0.05
1164 1 0.25 0.95 0
1168 1 0.25 0.95 0.1
1561 1 0.3 0.9 0
1562 1 0.3 0.95 0.05
1565 1 0.3 0.9 0.1
1563 1 0.35 0.9 0.05
1564 1 0.35 0.95 0
1568 1 0.35 0.95 0.1
1961 1 0.4 0.9 0
1962 1 0.4 0.95 0.05
1965 1 0.4 0.9 0.1
1963 1 0.45 0.9 0.05
1964 1 0.45 0.95 0
1968 1 0.45 0.95 0.1
2361 1 0.5 0.9 0
2362 1 0.5 0.95 0.05
2363 1 0.55 0.9 0.05
2364 1 0.55 0.95 0
2365 1 0.5 0.9 0.1
2368 1 0.55 0.95 0.1
2761 1 0.6 0.9 0
2762 1 0.6 0.95 0.05
2763 1 0.65 0.9 0.05
2764 1 0.65 0.95 0
2765 1 0.6 0.9 0.1
2768 1 0.65 0.95 0.1
3161 1 0.7 0.9 0
3162 1 0.7 0.95 0.05
3163 1 0.75 0.9 0.05
3164 1 0.75 0.95 0
3165 1 0.7 0.9 0.1
3168 1 0.75 0.95 0.1
3561 1 0.8 0.9 0
3562 1 0.8 0.95 0.05
3563 1 0.85 0.9 0.05
3564 1 0.85 0.95 0
3565 1 0.8 0.9 0.1
3568 1 0.85 0.95 0.1
3961 1 0.9 0.9 0
3962 1 0.9 0.95 0.05
3963 1 0.95 0.9 0.05
3964 1 0.95 0.95 0
3965 1 0.9 0.9 0.1
3968 1 0.95 0.95 0.1
6 1 0 0.05 0.15
7 1 0.05 0 0.15
9 1 0 0 0.2
12 1 0.05 0.05 0.2
47 1 0.05 0.1 0.15
49 1 0 0.1 0.2
406 1 0.1 0.05 0.15
409 1 0.1 0 0.2
449 1 0.1 0.1 0.2
407 1 0.15 0 0.15
412 1 0.15 0.05 0.2
447 1 0.15 0.1 0.15
806 1 0.2 0.05 0.15
809 1 0.2 0 0.2
849 1 0.2 0.1 0.2
807 1 0.25 0 0.15
812 1 0.25 0.05 0.2
847 1 0.25 0.1 0.15
1206 1 0.3 0.05 0.15
1209 1 0.3 0 0.2
1249 1 0.3 0.1 0.2
1207 1 0.35 0 0.15
1212 1 0.35 0.05 0.2
1247 1 0.35 0.1 0.15
1606 1 0.4 0.05 0.15
1609 1 0.4 0 0.2
1649 1 0.4 0.1 0.2
1607 1 0.45 0 0.15
1612 1 0.45 0.05 0.2
1647 1 0.45 0.1 0.15
2006 1 0.5 0.05 0.15
2007 1 0.55 0 0.15
2009 1 0.5 0 0.2
2012 1 0.55 0.05 0.2
2047 1 0.55 0.1 0.15
2049 1 0.5 0.1 0.2
2406 1 0.6 0.05 0.15
2407 1 0.65 0 0.15
2409 1 0.6 0 0.2
2412 1 0.65 0.05 0.2
2447 1 0.65 0.1 0.15
2449 1 0.6 0.1 0.2
2806 1 0.7 0.05 0.15
2807 1 0.75 0 0.15
2809 1 0.7 0 0.2
2812 1 0.75 0.05 0.2
2847 1 0.75 0.1 0.15
2849 1 0.7 0.1 0.2
3206 1 0.8 0.05 0.15
3207 1 0.85 0 0.15
3209 1 0.8 0 0.2
3212 1 0.85 0.05 0.2
3247 1 0.85 0.1 0.15
3249 1 0.8 0.1 0.2
3606 1 0.9 0.05 0.15
3607 1 0.95 0 0.15
3609 1 0.9 0 0.2
3612 1 0.95 0.05 0.2
3647 1 0.95 0.1 0.15
3649 1 0.9 0.1 0.2
46 1 0 0.15 0.15
52 1 0.05 0.15 0.2
87 1 0.05 0.2 0.15
89 1 0 0.2 0.2
446 1 0.1 0.15 0.15
489 1 0.1 0.2 0.2
452 1 0.15 0.15 0.2
487 1 0.15 0.2 0.15
846 1 0.2 0.15 0.15
889 1 0.2 0.2 0.2
852 1 0.25 0.15 0.2
887 1 0.25 0.2 0.15
1246 1 0.3 0.15 0.15
1289 1 0.3 0.2 0.2
1252 1 0.35 0.15 0.2
1287 1 0.35 0.2 0.15
1646 1 0.4 0.15 0.15
1689 1 0.4 0.2 0.2
1652 1 0.45 0.15 0.2
1687 1 0.45 0.2 0.15
2046 1 0.5 0.15 0.15
2052 1 0.55 0.15 0.2
2087 1 0.55 0.2 0.15
2089 1 0.5 0.2 0.2
2446 1 0.6 0.15 0.15
2452 1 0.65 0.15 0.2
2487 1 0.65 0.2 0.15
2489 1 0.6 0.2 0.2
2846 1 0.7 0.15 0.15
2852 1 0.75 0.15 0.2
2887 1 0.75 0.2 0.15
2889 1 0.7 0.2 0.2
3246 1 0.8 0.15 0.15
3252 1 0.85 0.15 0.2
3287 1 0.85 0.2 0.15
3289 1 0.8 0.2 0.2
3646 1 0.9 0.15 0.15
3652 1 0.95 0.15 0.2
3687 1 0.95 0.2 0.15
3689 1 0.9 0.2 0.2
86 1 0 0.25 0.15
92 1 0.05 0.25 0.2
127 1 0.05 0.3 0.15
129 1 0 0.3 0.2
486 1 0.1 0.25 0.15
529 1 0.1 0.3 0.2
492 1 0.15 0.25 0.2
527 1 0.15 0.3 0.15
886 1 0.2 0.25 0.15
929 1 0.2 0.3 0.2
892 1 0.25 0.25 0.2
927 1 0.25 0.3 0.15
1286 1 0.3 0.25 0.15
1329 1 0.3 0.3 0.2
1292 1 0.35 0.25 0.2
1327 1 0.35 0.3 0.15
1686 1 0.4 0.25 0.15
1729 1 0.4 0.3 0.2
1692 1 0.45 0.25 0.2
1727 1 0.45 0.3 0.15
2086 1 0.5 0.25 0.15
2092 1 0.55 0.25 0.2
2127 1 0.55 0.3 0.15
2129 1 0.5 0.3 0.2
2486 1 0.6 0.25 0.15
2492 1 0.65 0.25 0.2
2527 1 0.65 0.3 0.15
2529 1 0.6 0.3 0.2
2886 1 0.7 0.25 0.15
2892 1 0.75 0.25 0.2
2927 1 0.75 0.3 0.15
2929 1 0.7 0.3 0.2
3286 1 0.8 0.25 0.15
3292 1 0.85 0.25 0.2
3327 1 0.85 0.3 0.15
3329 1 0.8 0.3 0.2
3686 1 0.9 0.25 0.15
3692 1 0.95 0.25 0.2
3727 1 0.95 0.3 0.15
3729 1 0.9 0.3 0.2
126 1 0 0.35 0.15
132 1 0.05 0.35 0.2
167 1 0.05 0.4 0.15
169 1 0 0.4 0.2
526 1 0.1 0.35 0.15
569 1 0.1 0.4 0.2
532 1 0.15 0.35 0.2
567 1 0.15 0.4 0.15
926 1 0.2 0.35 0.15
969 1 0.2 0.4 0.2
932 1 0.25 0.35 0.2
967 1 0.25 0.4 0.15
1326 1 0.3 0.35 0.15
1369 1 0.3 0.4 0.2
1332 1 0.35 0.35 0.2
1367 1 0.35 0.4 0.15
1726 1 0.4 0.35 0.15
1769 1 0.4 0.4 0.2
1732 1 0.45 0.35 0.2
1767 1 0.45 0.4 0.15
2126 1 0.5 0.35 0.15
2132 1 0.55 0.35 0.2
2167 1 0.55 0.4 0.15
2169 1 0.5 0.4 0.2
2526 1 0.6 0.35 0.15
2532 1 0.65 0.35 0.2
2567 1 0.65 0.4 0.15
2569 1 0.6 0.4 0.2
2926 1 0.7 0.35 0.15
2932 1 0.75 0.35 0.2
2967 1 0.75 0.4 0.15
2969 1 0.7 0.4 0.2
3326 1 0.8 0.35 0.15
3332 1 0.85 0.35 0.2
3367 1 0.85 0.4 0.15
3369 1 0.8 0.4 0.2
3726 1 0.9 0.35 0.15
3732 1 0.95 0.35 0.2
3767 1 0.95 0.4 0.15
3769 1 0.9 0.4 0.2
166 1 0 0.45 0.15
172 1 0.05 0.45 0.2
206 1 0 0.55 0.15
207 1 0.05 0.5 0.15
209 1 0 0.5 0.2
212 1 0.05 0.55 0.2
566 1 0.1 0.45 0.15
606 1 0.1 0.55 0.15
609 1 0.1 0.5 0.2
572 1 0.15 0.45 0.2
607 1 0.15 0.5 0.15
612 1 0.15 0.55 0.2
966 1 0.2 0.45 0.15
1006 1 0.2 0.55 0.15
1009 1 0.2 0.5 0.2
972 1 0.25 0.45 0.2
1007 1 0.25 0.5 0.15
1012 1 0.25 0.55 0.2
1366 1 0.3 0.45 0.15
1406 1 0.3 0.55 0.15
1409 1 0.3 0.5 0.2
1372 1 0.35 0.45 0.2
1407 1 0.35 0.5 0.15
1412 1 0.35 0.55 0.2
1766 1 0.4 0.45 0.15
1806 1 0.4 0.55 0.15
1809 1 0.4 0.5 0.2
1772 1 0.45 0.45 0.2
1807 1 0.45 0.5 0.15
1812 1 0.45 0.55 0.2
2166 1 0.5 0.45 0.15
2172 1 0.55 0.45 0.2
2206 1 0.5 0.55 0.15
2207 1 0.55 0.5 0.15
2209 1 0.5 0.5 0.2
2212 1 0.55 0.55 0.2
2566 1 0.6 0.45 0.15
2572 1 0.65 0.45 0.2
2606 1 0.6 0.55 0.15
2607 1 0.65 0.5 0.15
2609 1 0.6 0.5 0.2
2612 1 0.65 0.55 0.2
2966 1 0.7 0.45 0.15
2972 1 0.75 0.45 0.2
3006 1 0.7 0.55 0.15
3007 1 0.75 0.5 0.15
3009 1 0.7 0.5 0.2
3012 1 0.75 0.55 0.2
3366 1 0.8 0.45 0.15
3372 1 0.85 0.45 0.2
3406 1 0.8 0.55 0.15
3407 1 0.85 0.5 0.15
3409 1 0.8 0.5 0.2
3412 1 0.85 0.55 0.2
3766 1 0.9 0.45 0.15
3772 1 0.95 0.45 0.2
3806 1 0.9 0.55 0.15
3807 1 0.95 0.5 0.15
3809 1 0.9 0.5 0.2
3812 1 0.95 0.55 0.2
246 1 0 0.65 0.15
247 1 0.05 0.6 0.15
249 1 0 0.6 0.2
252 1 0.05 0.65 0.2
646 1 0.1 0.65 0.15
649 1 0.1 0.6 0.2
647 1 0.15 0.6 0.15
652 1 0.15 0.65 0.2
1046 1 0.2 0.65 0.15
1049 1 0.2 0.6 0.2
1047 1 0.25 0.6 0.15
1052 1 0.25 0.65 0.2
1446 1 0.3 0.65 0.15
1449 1 0.3 0.6 0.2
1447 1 0.35 0.6 0.15
1452 1 0.35 0.65 0.2
1846 1 0.4 0.65 0.15
1849 1 0.4 0.6 0.2
1847 1 0.45 0.6 0.15
1852 1 0.45 0.65 0.2
2246 1 0.5 0.65 0.15
2247 1 0.55 0.6 0.15
2249 1 0.5 0.6 0.2
2252 1 0.55 0.65 0.2
2646 1 0.6 0.65 0.15
2647 1 0.65 0.6 0.15
2649 1 0.6 0.6 0.2
2652 1 0.65 0.65 0.2
3046 1 0.7 0.65 0.15
3047 1 0.75 0.6 0.15
3049 1 0.7 0.6 0.2
3052 1 0.75 0.65 0.2
3446 1 0.8 0.65 0.15
3447 1 0.85 0.6 0.15
3449 1 0.8 0.6 0.2
3452 1 0.85 0.65 0.2
3846 1 0.9 0.65 0.15
3847 1 0.95 0.6 0.15
3849 1 0.9 0.6 0.2
3852 1 0.95 0.65 0.2
286 1 0 0.75 0.15
287 1 0.05 0.7 0.15
289 1 0 0.7 0.2
292 1 0.05 0.75 0.2
686 1 0.1 0.75 0.15
689 1 0.1 0.7 0.2
687 1 0.15 0.7 0.15
692 1 0.15 0.75 0.2
1086 1 0.2 0.75 0.15
1089 1 0.2 0.7 0.2
1087 1 0.25 0.7 0.15
1092 1 0.25 0.75 0.2
1486 1 0.3 0.75 0.15
1489 1 0.3 0.7 0.2
1487 1 0.35 0.7 0.15
1492 1 0.35 0.75 0.2
1886 1 0.4 0.75 0.15
1889 1 0.4 0.7 0.2
1887 1 0.45 0.7 0.15
1892 1 0.45 0.75 0.2
2286 1 0.5 0.75 0.15
2287 1 0.55 0.7 0.15
2289 1 0.5 0.7 0.2
2292 1 0.55 0.75 0.2
2686 1 0.6 0.75 0.15
2687 1 0.65 0.7 0.15
2689 1 0.6 0.7 0.2
2692 1 0.65 0.75 0.2
3086 1 0.7 0.75 0.15
3087 1 0.75 0.7 0.15
3089 1 0.7 0.7 0.2
3092 1 0.75 0.75 0.2
3486 1 0.8 0.75 0.15
3487 1 0.85 0.7 0.15
3489 1 0.8 0.7 0.2
3492 1 0.85 0.75 0.2
3886 1 0.9 0.75 0.15
3887 1 0.95 0.7 0.15
3889 1 0.9 0.7 0.2
3892 1 0.95 0.75 0.2
326 1 0 0.85 0.15
327 1 0.05 0.8 0.15
329 1 0 0.8 0.2
332 1 0.05 0.85 0.2
726 1 0.1 0.85 0.15
729 1 0.1 0.8 0.2
727 1 0.15 0.8 0.15
732 1 0.15 0.85 0.2
1126 1 0.2 0.85 0.15
1129 1 0.2 0.8 0.2
1127 1 0.25 0.8 0.15
1132 1 0.25 0.85 0.2
1526 1 0.3 0.85 0.15
1529 1 0.3 0.8 0.2
1527 1 0.35 0.8 0.15
1532 1 0.35 0.85 0.2
1926 1 0.4 0.85 0.15
1929 1 0.4 0.8 0.2
1927 1 0.45 0.8 0.15
1932 1 0.45 0.85 0.2
2326 1 0.5 0.85 0.15
2327 1 0.55 0.8 0.15
2329 1 0.5 0.8 0.2
2332 1 0.55 0.85 0.2
2726 1 0.6 0.85 0.15
2727 1 0.65 0.8 0.15
2729 1 0.6 0.8 0.2
2732 1 0.65 0.85 0.2
3126 1 0.7 0.85 0.15
3127 1 0.75 0.8 0.15
3129 1 0.7 0.8 0.2
3132 1 0.75 0.85 0.2
3526 1 0.8 0.85 0.15
3527 1 0.85 0.8 0.15
3529 1 0.8 0.8 0.2
3532 1 0.85 0.85 0.2
3926 1 0.9 0.85 0.15
3927 1 0.95 0.8 0.15
3929 1 0.9 0.8 0.2
3932 1 0.95 0.85 0.2
366 1 0 0.95 0.15
367 1 0.05 0.9 0.15
369 1 0 0.9 0.2
372 1 0.05 0.95 0.2
766 1 0.1 0.95 0.15
769 1 0.1 0.9 0.2
767 1 0.15 0.9 0.15
772 1 0.15 0.95 0.2
1166 1 0.2 0.95 0.15
1169 1 0.2 0.9 0.2
1167 1 0.25 0.9 0.15
1172 1 0.25 0.95 0.2
1566 1 0.3 0.95 0.15
1569 1 0.3 0.9 0.2
1567 1 0.35 0.9 0.15
1572 1 0.35 0.95 0.2
1966 1 0.4 0.95 0.15
1969 1 0.4 0.9 0.2
1967 1 0.45 0.9 0.15
1972 1 0.45 0.95 0.2
2366 1 0.5 0.95 0.15
2367 1 0.55 0.9 0.15
2369 1 0.5 0.9 0.2
2372 1 0.55 0.95 0.2
2766 1 0.6 0.95 0.15
2767 1 0.65 0.9 0.15
2769 1 0.6 0.9 0.2
2772 1 0.65 0.95 0.2
3166 1 0.7 0.95 0.15
3167 1 0.75 0.9 0.15
3169 1 0.7 0.9 0.2
3172 1 0.75 0.95 0.2
3566 1 0.8 0.95 0.15
3567 1 0.85 0.9 0.15
3569 1 0.8 0.9 0.2
3572 1 0.85 0.95 0.2
3966 1 0.9 0.95 0.15
3967 1 0.95 0.9 0.15
3969 1 0.9 0.9 0.2
3972 1 0.95 0.95 0.2
10 1 0 0.05 0.25
11 1 0.05 0 0.25
13 1 0 0 0.3
16 1 0.05 0.05 0.3
51 1 0.05 0.1 0.25
53 1 0 0.1 0.3
410 1 0.1 0.05 0.25
413 1 0.1 0 0.3
453 1 0.1 0.1 0.3
411 1 0.15 0 0.25
416 1 0.15 0.05 0.3
451 1 0.15 0.1 0.25
810 1 0.2 0.05 0.25
813 1 0.2 0 0.3
853 1 0.2 0.1 0.3
811 1 0.25 0 0.25
816 1 0.25 0.05 0.3
851 1 0.25 0.1 0.25
1210 1 0.3 0.05 0.25
1213 1 0.3 0 0.3
1253 1 0.3 0.1 0.3
1211 1 0.35 0 0.25
1216 1 0.35 0.05 0.3
1251 1 0.35 0.1 0.25
1610 1 0.4 0.05 0.25
1613 1 0.4 0 0.3
1653 1 0.4 0.1 0.3
1611 1 0.45 0 0.25
1616 1 0.45 0.05 0.3
1651 1 0.45 0.1 0.25
2010 1 0.5 0.05 0.25
2011 1 0.55 0 0.25
2013 1 0.5 0 0.3
2016 1 0.55 0.05 0.3
2051 1 0.55 0.1 0.25
2053 1 0.5 0.1 0.3
2410 1 0.6 0.05 0.25
2411 1 0.65 0 0.25
2413 1 0.6 0 0.3
2416 1 0.65 0.05 0.3
2451 1 0.65 0.1 0.25
2453 1 0.6 0.1 0.3
2810 1 0.7 0.05 0.25
2811 1 0.75 0 0.25
2813 1 0.7 0 0.3
2816 1 0.75 0.05 0.3
2851 1 0.75 0.1 0.25
2853 1 0.7 0.1 0.3
3210 1 0.8 0.05 0.25
3211 1 0.85 0 0.25
3213 1 0.8 0 0.3
3216 1 0.85 0.05 0.3
3251 1 0.85 0.1 0.25
3253 1 0.8 0.1 0.3
3610 1 0.9 0.05 0.25
3611 1 0.95 0 0.25
3613 1 0.9 0 0.3
3616 1 0.95 0.05 0.3
3651 1 0.95 0.1 0.25
3653 1 0.9 0.1 0.3
50 1 0 0.15 0.25
56 1 0.05 0.15 0.3
91 1 0.05 0.2 0.25
93 1 0 0.2 0.3
450 1 0.1 0.15 0.25
493 1 0.1 0.2 0.3
456 1 0.15 0.15 0.3
491 1 0.15 0.2 0.25
850 1 0.2 0.15 0.25
893 1 0.2 0.2 0.3
856 1 0.25 0.15 0.3
891 1 0.25 0.2 0.25
1250 1 0.3 0.15 0.25
1293 1 0.3 0.2 0.3
1256 1 0.35 0.15 0.3
1291 1 0.35 0.2 0.25
1650 1 0.4 0.15 0.25
1693 1 0.4 0.2 0.3
1656 1 0.45 0.15 0.3
1691 1 0.45 0.2 0.25
2050 1 0.5 0.15 0.25
2056 1 0.55 0.15 0.3
2091 1 0.55 0.2 0.25
2093 1 0.5 0.2 0.3
2450 1 0.6 0.15 0.25
2456 1 0.65 0.15 0.3
2491 1 0.65 0.2 0.25
2493 1 0.6 0.2 0.3
2850 1 0.7 0.15 0.25
2856 1 0.75 0.15 0.3
2891 1 0.75 0.2 0.25
2893 1 0.7 0.2 0.3
3250 1 0.8 0.15 0.25
3256 1 0.85 0.15 0.3
3291 1 0.85 0.2 0.25
3293 1 0.8 0.2 0.3
3650 1 0.9 0.15 0.25
3656 1 0.95 0.15 0.3
3691 1 0.95 0.2 0.25
3693 1 0.9 0.2 0.3
90 1 0 0.25 0.25
96 1 0.05 0.25 0.3
131 1 0.05 0.3 0.25
133 1 0 0.3 0.3
490 1 0.1 0.25 0.25
533 1 0.1 0.3 0.3
496 1 0.15 0.25 0.3
531 1 0.15 0.3 0.25
890 1 0.2 0.25 0.25
933 1 0.2 0.3 0.3
896 1 0.25 0.25 0.3
931 1 0.25 0.3 0.25
1290 1 0.3 0.25 0.25
1333 1 0.3 0.3 0.3
1296 1 0.35 0.25 0.3
1331 1 0.35 0.3 0.25
1690 1 0.4 0.25 0.25
1733 1 0.4 0.3 0.3
1696 1 0.45 0.25 0.3
1731 1 0.45 0.3 0.25
2090 1 0.5 0.25 0.25
2096 1 0.55 0.25 0.3
2131 1 0.55 0.3 0.25
2133 1 0.5 0.3 0.3
2490 1 0.6 0.25 0.25
2496 1 0.65 0.25 0.3
2531 1 0.65 0.3 0.25
2533 1 0.6 0.3 0.3
2890 1 0.7 0.25 0.25
2896 1 0.75 0.25 0.3
2931 1 0.75 0.3 0.25
2933 1 0.7 0.3 0.3
3290 1 0.8 0.25 0.25
3296 1 0.85 0.25 0.3
3331 1 0.85 0.3 0.25
3333 1 0.8 0.3 0.3
3690 1 0.9 0.25 0.25
3696 1 0.95 0.25 0.3
3731 1 0.95 0.3 0.25
3733 1 0.9 0.3 0.3
130 1 0 0.35 0.25
136 1 0.05 0.35 0.3
171 1 0.05 0.4 0.25
173 1 0 0.4 0.3
530 1 0.1 0.35 0.25
573 1 0.1 0.4 0.3
536 1 0.15 0.35 0.3
571 1 0.15 0.4 0.25
930 1 0.2 0.35 0.25
973 1 0.2 0.4 0.3
936 1 0.25 0.35 0.3
971 1 0.25 0.4 0.25
1330 1 0.3 0.35 0.25
1373 1 0.3 0.4 0.3
1336 1 0.35 0.35 0.3
1371 1 0.35 0.4 0.25
1730 1 0.4 0.35 0.25
1773 1 0.4 0.4 0.3
1736 1 0.45 0.35 0.3
1771 1 0.45 0.4 0.25
2130 1 0.5 0.35 0.25
2136 1 0.55 0.35 0.3
2171 1 0.55 0.4 0.25
2173 1 0.5 0.4 0.3
2530 1 0.6 0.35 0.25
2536 1 0.65 0.35 0.3
2571 1 0.65 0.4 0.25
2573 1 0.6 0.4 0.3
2930 1 0.7 0.35 0.25
2936 1 0.75 0.35 0.3
2971 1 0.75 0.4 0.25
2973 1 0.7 0.4 0.3
3330 1 0.8 0.35 0.25
3336 1 0.85 0.35 0.3
3371 1 0.85 0.4 0.25
3373 1 0.8 0.4 0.3
3730 1 0.9 0.35 0.25
3736 1 0.95 0.35 0.3
3771 1 0.95 0.4 0.25
3773 1 0.9 0.4 0.3
170 1 0 0.45 0.25
176 1 0.05 0.45 0.3
210 1 0 0.55 0.25
211 1 0.05 0.5 0.25
213 1 0 0.5 0.3
216 1 0.05 0.55 0.3
570 1 0.1 0.45 0.25
610 1 0.1 0.55 0.25
613 1 0.1 0.5 0.3
576 1 0.15 0.45 0.3
611 1 0.15 0.5 0.25
616 1 0.15 0.55 0.3
970 1 0.2 0.45 0.25
1010 1 0.2 0.55 0.25
1013 1 0.2 0.5 0.3
976 1 0.25 0.45 0.3
1011 1 0.25 0.5 0.25
1016 1 0.25 0.55 0.3
1370 1 0.3 0.45 0.25
1410 1 0.3 0.55 0.25
1413 1 0.3 0.5 0.3
1376 1 0.35 0.45 0.3
1411 1 0.35 0.5 0.25
1416 1 0.35 0.55 0.3
1770 1 0.4 0.45 0.25
1810 1 0.4 0.55 0.25
1813 1 0.4 0.5 0.3
1776 1 0.45 0.45 0.3
1811 1 0.45 0.5 0.25
1816 1 0.45 0.55 0.3
2170 1 0.5 0.45 0.25
2176 1 0.55 0.45 0.3
2210 1 0.5 0.55 0.25
2211 1 0.55 0.5 0.25
2213 1 0.5 0.5 0.3
2216 1 0.55 0.55 0.3
2570 1 0.6 0.45 0.25
2576 1 0.65 0.45 0.3
2610 1 0.6 0.55 0.25
2611 1 0.65 0.5 0.25
2613 1 0.6 0.5 0.3
2616 1 0.65 0.55 0.3
2970 1 0.7 0.45 0.25
2976 1 0.75 0.45 0.3
3010 1 0.7 0.55 0.25
3011 1 0.75 0.5 0.25
3013 1 0.7 0.5 0.3
3016 1 0.75 0.55 0.3
3370 1 0.8 0.45 0.25
3376 1 0.85 0.45 0.3
3410 1 0.8 0.55 0.25
3411 1 0.85 0.5 0.25
3413 1 0.8 0.5 0.3
3416 1 0.85 0.55 0.3
3770 1 0.9 0.45 0.25
3776 1 0.95 0.45 0.3
3810 1 0.9 0.55 0.25
3811 1 0.95 0.5 0.25
3813 1 0.9 0.5 0.3
3816 1 0.95 0.55 0.3
250 1 0 0.65 0.25
251 1 0.05 0.6 0.25
253 1 0 0.6 0.3
256 1 0.05 0.65 0.3
650 1 0.1 0.65 0.25
653 1 0.1 0.6 0.3
651 1 0.15 0.6 0.25
656 1 0.15 0.65 0.3
1050 1 0.2 0.65 0.25
1053 1 0.2 0.6 0.3
1051 1 0.25 0.6 0.25
1056 1 0.25 0.65 0.3
1450 1 0.3 0.65 0.25
1453 1 0.3 0.6 0.3
1451 1 0.35 0.6 0.25
1456 1 0.35 0.65 0.3
1850 1 0.4 0.65 0.25
1853 1 0.4 0.6 0.3
1851 1 0.45 0.6 0.25
1856 1 0.45 0.65 0.3
2250 1 0.5 0.65 0.25
2251 1 0.55 0.6 0.25
2253 1 0.5 0.6 0.3
2256 1 0.55 0.65 0.3
2650 1 0.6 0.65 0.25
2651 1 0.65 0.6 0.25
2653 1 0.6 0.6 0.3
2656 1 0.65 0.65 0.3
3050 1 0.7 0.65 0.25
3051 1 0.75 0.6 0.25
3053 1 0.7 0.6 0.3
3056 1 0.75 0.65 0.3
3450 1 0.8 0.65 0.25
3451 1 0.85 0.6 0.25
3453 1 0.8 0.6 0.3
3456 1 0.85 0.65 0.3
3850 1 0.9 0.65 0.25
3851 1 0.95 0.6 0.25
3853 1 0.9 0.6 0.3
3856 1 0.95 0.65 0.3
290 1 0 0.75 0.25
291 1 0.05 0.7 0.25
293 1 0 0.7 0.3
296 1 0.05 0.75 0.3
690 1 0.1 0.75 0.25
693 1 0.1 0.7 0.3
691 1 0.15 0.7 0.25
696 1 0.15 0.75 0.3
1090 1 0.2 0.75 0.25
1093 1 0.2 0.7 0.3
1091 1 0.25 0.7 0.25
1096 1 0.25 0.75 0.3
1490 1 0.3 0.75 0.25
1493 1 0.3 0.7 0.3
1491 1 0.35 0.7 0.25
1496 1 0.35 0.75 0.3
1890 1 0.4 0.75 0.25
1893 1 0.4 0.7 0.3
1891 1 0.45 0.7 0.25
1896 1 0.45 0.75 0.3
2290 1 0.5 0.75 0.25
2291 1 0.55 0.7 0.25
2293 1 0.5 0.7 0.3
2296 1 0.55 0.75 0.3
2690 1 0.6 0.75 0.25
2691 1 0.65 0.7 0.25
2693 1 0.6 0.7 0.3
2696 1 0.65 0.75 0.3
3090 1 0.7 0.75 0.25
3091 1 0.75 0.7 0.25
3093 1 0.7 0.7 0.3
3096 1 0.75 0.75 0.3
3490 1 0.8 0.75 0.25
3491 1 0.85 0.7 0.25
3493 1 0.8 0.7 0.3
3496 1 0.85 0.75 0.3
3890 1 0.9 0.75 0.25
3891 1 0.95 0.7 0.25
3893 1 0.9 0.7 0.3
3896 1 0.95 0.75 0.3
330 1 0 0.85 0.25
331 1 0.05 0.8 0.25
333 1 0 0.8 0.3
336 1 0.05 0.85 0.3
730 1 0.1 0.85 0.25
733 1 0.1 0.8 0.3
731 1 0.15 0.8 0.25
736 1 0.15 0.85 0.3
1130 1 0.2 0.85 0.25
1133 1 0.2 0.8 0.3
1131 1 0.25 0.8 0.25
1136 1 0.25 0.85 0.3
1530 1 0.3 0.85 0.25
1533 1 0.3 0.8 0.3
1531 1 0.35 0.8 0.25
1536 1 0.35 0.85 0.3
1930 1 0.4 0.85 0.25
1933 1 0.4 0.8 0.3
1931 1 0.45 0.8 0.25
1936 1 0.45 0.85 0.3
2330 1 0.5 0.85 0.25
2331 1 0.55 0.8 0.25
2333 1 0.5 0.8 0.3
2336 1 0.55 0.85 0.3
2730 1 0.6 0.85 0.25
2731 1 0.65 0.8 0.25
2733 1 0.6 0.8 0.3
2736 1 0.65 0.85 0.3
3130 1 0.7 0.85 0.25
3131 1 0.75 0.8 0.25
3133 1 0.7 0.8 0.3
3136 1 0.75 0.85 0.3
3530 1 0.8 0.85 0.25
3531 1 0.85 0.8 0.25
3533 1 0.8 0.8 0.3
3536 1 0.85 0.85 0.3
3930 1 0.9 0.85 0.25
3931 1 0.95 0.8 0.25
3933 1 0.9 0.8 0.3
3936 1 0.95 0.85 0.3
370 1 0 0.95 0.25
371 1 0.05 0.9 0.25
373 1 0 0.9 0.3
376 1 0.05 0.95 0.3
770 1 0.1 0.95 0.25
773 1 0.1 0.9 0.3
771 1 0.15 0.9 0.25
776 1 0.15 0.95 0.3
1170 1 0.2 0.95 0.25
1173 1 0.2 0.9 0.3
1171 1 0.25 0.9 0.25
1176 1 0.25 0.95 0.3
1570 1 0.3 0.95 0.25
1573 1 0.3 0.9 0.3
1571 1 0.35 0.9 0.25
1576 1 0.35 0.95 0.3
1970 1 0.4 0.95 0.25
1973 1 0.4 0.9 0.3
1971 1 0.45 0.9 0.25
1976 1 0.45 0.95 0.3
2370 1 0.5 0.95 0.25
2371 1 0.55 0.9 0.25
2373 1 0.5 0.9 0.3
2376 1 0.55 0.95 0.3
2770 1 0.6 0.95 0.25
2771 1 0.65 0.9 0.25
2773 1 0.6 0.9 0.3
2776 1 0.65 0.95 0.3
3170 1 0.7 0.95 0.25
3171 1 0.75 0.9 0.25
3173 1 0.7 0.9 0.3
3176 1 0.75 0.95 0.3
3570 1 0.8 0.95 0.25
3571 1 0.85 0.9 0.25
3573 1 0.8 0.9 0.3
3576 1 0.85 0.95 0.3
3970 1 0.9 0.95 0.25
3971 1 0.95 0.9 0.25
3973 1 0.9 0.9 0.3
3976 1 0.95 0.95 0.3
14 1 0 0.05 0.35
15 1 0.05 0 0.35
17 1 0 0 0.4
20 1 0.05 0.05 0.4
55 1 0.05 0.1 0.35
57 1 0 0.1 0.4
414 1 0.1 0.05 0.35
417 1 0.1 0 0.4
457 1 0.1 0.1 0.4
415 1 0.15 0 0.35
420 1 0.15 0.05 0.4
455 1 0.15 0.1 0.35
814 1 0.2 0.05 0.35
817 1 0.2 0 0.4
857 1 0.2 0.1 0.4
815 1 0.25 0 0.35
820 1 0.25 0.05 0.4
855 1 0.25 0.1 0.35
1214 1 0.3 0.05 0.35
1217 1 0.3 0 0.4
1257 1 0.3 0.1 0.4
1215 1 0.35 0 0.35
1220 1 0.35 0.05 0.4
1255 1 0.35 0.1 0.35
1614 1 0.4 0.05 0.35
1617 1 0.4 0 0.4
1657 1 0.4 0.1 0.4
1615 1 0.45 0 0.35
1620 1 0.45 0.05 0.4
1655 1 0.45 0.1 0.35
2014 1 0.5 0.05 0.35
2015 1 0.55 0 0.35
2017 1 0.5 0 0.4
2020 1 0.55 0.05 0.4
2055 1 0.55 0.1 0.35
2057 1 0.5 0.1 0.4
2414 1 0.6 0.05 0.35
2415 1 0.65 0 0.35
2417 1 0.6 0 0.4
2420 1 0.65 0.05 0.4
2455 1 0.65 0.1 0.35
2457 1 0.6 0.1 0.4
2814 1 0.7 0.05 0.35
2815 1 0.75 0 0.35
2817 1 0.7 0 0.4
2820 1 0.75 0.05 0.4
2855 1 0.75 0.1 0.35
2857 1 0.7 0.1 0.4
3214 1 0.8 0.05 0.35
3215 1 0.85 0 0.35
3217 1 0.8 0 0.4
3220 1 0.85 0.05 0.4
3255 1 0.85 0.1 0.35
3257 1 0.8 0.1 0.4
3614 1 0.9 0.05 0.35
3615 1 0.95 0 0.35
3617 1 0.9 0 0.4
3620 1 0.95 0.05 0.4
3655 1 0.95 0.1 0.35
3657 1 0.9 0.1 0.4
54 1 0 0.15 0.35
60 1 0.05 0.15 0.4
95 1 0.05 0.2 0.35
97 1 0 0.2 0.4
454 1 0.1 0.15 0.35
497 1 0.1 0.2 0.4
460 1 0.15 0.15 0.4
495 1 0.15 0.2 0.35
854 1 0.2 0.15 0.35
897 1 0.2 0.2 0.4
860 1 0.25 0.15 0.4
895 1 0.25 0.2 0.35
1254 1 0.3 0.15 0.35
1297 1 0.3 0.2 0.4
1260 1 0.35 0.15 0.4
1295 1 0.35 0.2 0.35
1654 1 0.4 0.15 0.35
1697 1 0.4 0.2 0.4
1660 1 0.45 0.15 0.4
1695 1 0.45 0.2 0.35
2054 1 0.5 0.15 0.35
2060 1 0.55 0.15 0.4
2095 1 0.55 0.2 0.35
2097 1 0.5 0.2 0.4
2454 1 0.6 0.15 0.35
2460 1 0.65 0.15 0.4
2495 1 0.65 0.2 0.35
2497 1 0.6 0.2 0.4
2854 1 0.7 0.15 0.35
2860 1 0.75 0.15 0.4
2895 1 0.75 0.2 0.35
2897 1 0.7 0.2 0.4
3254 1 0.8 0.15 0.35
3260 1 0.85 0.15 0.4
3295 1 0.85 0.2 0.35
3297 1 0.8 0.2 0.4
3654 1 0.9 0.15 0.35
3660 1 0.95 0.15 0.4
3695 1 0.95 0.2 0.35
3697 1 0.9 0.2 0.4
94 1 0 0.25 0.35
100 1 0.05 0.25 0.4
135 1 0.05 0.3 0.35
137 1 0 0.3 0.4
494 1 0.1 0.25 0.35
537 1 0.1 0.3 0.4
500 1 0.15 0.25 0.4
535 1 0.15 0.3 0.35
894 1 0.2 0.25 0.35
937 1 0.2 0.3 0.4
900 1 0.25 0.25 0.4
935 1 0.25 0.3 0.35
1294 1 0.3 0.25 0.35
1337 1 0.3 0.3 0.4
1300 1 0.35 0.25 0.4