LAMMPS (17 Nov 2016)
# Affiliation: Dept. Materials Science and Engineering
# University of Arizona
# Abduljabar Alsayoud


# Units energy:eV time:ps distance:angstrom flux:energy*velocity
#---------Sim variables---------------
variable fileprefix string  Al101010
variable temp_s equal '250.0'
variable press_s equal '1.0'

#-----------Setup----------------------
units metal            #Energy = eV , Distance= Angstroms
dimension 3
boundary p p p         #Periodic boundary conditions
atom_style atomic

# Read config files

read_data data.${fileprefix}
read_data data.Al101010
  orthogonal box = (-16.1557 -16.1557 -16.1557) to (24.2336 24.2336 24.2336)
  1 by 1 by 1 MPI processor grid
  reading atoms ...
  4000 atoms

pair_style eam/alloy
pair_coeff * *  AlCu.eam.alloy Al
Reading potential file AlCu.eam.alloy with DATE: 2008-10-01
neighbor 2.0 bin
neigh_modify delay 10 check yes


#--------- NPT-------
reset_timestep 0
timestep 0.001

thermo 1000
thermo_style custom step pe ke etotal enthalpy temp vol press
velocity all create ${temp_s} 1518772
velocity all create 250 1518772
fix 1 all npt temp ${temp_s} ${temp_s} 0.5 iso ${press_s} ${press_s} 5
fix 1 all npt temp 250 ${temp_s} 0.5 iso ${press_s} ${press_s} 5
fix 1 all npt temp 250 250 0.5 iso ${press_s} ${press_s} 5
fix 1 all npt temp 250 250 0.5 iso 1 ${press_s} 5
fix 1 all npt temp 250 250 0.5 iso 1 1 5
dump 2 all atom 2000 dump.npt${fileprefix}
dump 2 all atom 2000 dump.nptAl101010
run 60000
Neighbor list info ...
  1 neighbor list requests
  update every 1 steps, delay 10 steps, check yes
  max neighbors/atom: 2000, page size: 100000
  master list distance cutoff = 8.6825
  ghost atom cutoff = 8.6825
  binsize = 4.34125 -> bins = 10 10 10
Memory usage per processor = 4.09116 Mbytes
Step PotEng KinEng TotEng Enthalpy Temp Volume Press 
       0   -13203.173    129.22783   -13073.945   -12899.405          250    65886.855    4244.3044 
    1000   -13124.349    125.78267   -12998.566   -12876.448    243.33511    67691.033    2890.4163 
    2000   -13141.715    129.48229   -13012.233   -12941.162    250.49228    67669.407    1682.7082 
    3000   -13135.846     124.1644   -13011.681     -12948.7    240.20446    67731.212    1489.8196 
    4000   -13145.852     140.8879   -13004.964   -13008.835    272.55719    67821.615    -91.45668 
    5000   -13134.363    125.36001   -13009.003   -12973.766    242.51744    67808.352    832.59965 
    6000   -13130.873    119.49774   -13011.375   -12960.313    231.17647    67794.208    1206.7527 
    7000   -13141.919    135.24691   -13006.672   -13010.789    261.64432    67846.869    -97.21265 
    8000   -13144.191    136.36891   -13007.822   -13020.187     263.8149    67852.226   -291.96385 
    9000   -13135.593    124.60443   -13010.988   -12987.474    241.05571     67829.92    555.42518 
   10000   -13130.348    123.81404   -13006.534   -12981.083    239.52665    67870.314    600.79476 
   11000   -13141.314    134.14452   -13007.169   -13020.344    259.51168    67879.182   -310.97094 
   12000   -13136.674    127.95281   -13008.721   -13005.082    247.53338    67871.909     85.90403 
   13000   -13138.691    129.68497   -13009.007   -13012.604    250.88437    67873.729    -84.91953 
   14000   -13130.456    123.45659       -13007   -12983.285    238.83514    67881.962    559.71999 
   15000   -13139.907    131.98041   -13007.926   -13019.831    255.32505    67883.884   -280.97372 
   16000   -13141.914    130.25079   -13011.663   -13021.961    251.97899    67858.721   -243.14633 
   17000   -13132.452    126.43721   -13006.015   -12993.524    244.60135     67893.73    294.76273 
   18000   -13136.177    127.65524   -13008.522   -13005.379    246.95773    67884.127     74.16505 
   19000   -13138.732    127.60234    -13011.13   -13012.733    246.85538    67870.958   -37.841348 
   20000   -13136.779    131.74626   -13005.033   -13019.458    254.87208    67919.367   -340.28082 
   21000   -13136.464      127.313   -13009.151   -13012.292    246.29563    67891.626   -74.110533 
   22000   -13137.161    127.40884   -13009.752   -13012.686    246.48104    67888.113   -69.247321 
   23000   -13139.477    132.05121   -13007.426   -13023.534    255.46202    67900.795   -380.07431 
   24000     -13135.6    133.33612   -13002.263   -13018.155    257.94776    67936.641   -374.76597 
   25000   -13136.585    128.22104   -13008.364   -13012.437     248.0523     67893.21   -96.112916 
   26000   -13140.111    130.31949   -13009.792   -13021.005    252.11188    67886.926   -264.65141 
   27000   -13136.496    130.66751   -13005.828   -13011.637    252.78516     67902.25   -137.05218 
   28000    -13137.79    130.25656   -13007.534   -13012.755    251.99014    67887.761   -123.23009 
   29000    -13137.18    126.81951    -13010.36   -13006.731    245.34093    67871.043    85.660006 
   30000   -13138.562     132.3326    -13006.23   -13011.201     256.0064    67885.026   -117.33277 
   31000   -13135.976       131.38   -13004.596   -12997.104    254.16351    67886.396    176.82307 
   32000   -13137.686    127.12896   -13010.558   -12989.355    245.93959    67828.789    500.82011 
   33000   -13137.361    129.72854   -13007.633   -12980.103    250.96867    67826.811    650.28543 
   34000   -13136.807     130.9403   -13005.867   -12972.542     253.3129    67817.012    787.30296 
   35000   -13137.035    128.71866   -13008.316   -12962.317    249.01497     67785.32    1087.2476 
   36000   -13139.231    130.15402   -13009.077   -12960.355    251.79178    67759.307    1152.0193 
   37000   -13137.505    130.40671   -13007.098   -12946.341    252.28062    67749.553     1436.819 
   38000   -13137.612    130.84957   -13006.762   -12944.755    253.13737     67744.66    1466.4904 
   39000   -13140.152    128.75432   -13011.398   -12946.452    249.08396    67714.052    1536.6798 
   40000   -13135.713    130.08419   -13005.629   -12945.111     251.6567    67769.104    1430.7391 
   41000   -13137.495    129.91985   -13007.576   -12960.861    251.33876    67783.514    1104.1848 
   42000   -13140.079    129.56977   -13010.509   -12980.613    250.66151    67793.596    706.53085 
   43000   -13135.261    131.30368   -13003.957   -12986.914    254.01587    67870.826    402.33282 
   44000   -13138.274    129.57211   -13008.702   -13002.361    250.66604    67865.404    149.69824 
   45000   -13140.535    130.88624   -13009.649   -13021.202    253.20831    67878.822   -272.68395 
   46000     -13134.3    130.93542   -13003.365    -13012.21    253.30344    67932.931   -208.60779 
   47000   -13135.838    129.05994   -13006.778   -13016.091    249.67521    67917.215   -219.70273 
   48000    -13137.31    127.70761   -13009.603   -13021.083    247.05904    67908.217   -270.84977 
   49000   -13138.889    128.73413   -13010.155   -13026.141    249.04491    67905.943   -377.16937 
   50000   -13137.323    131.91591   -13005.407   -13026.103    255.20027    67934.147   -488.08967 
   51000   -13140.343     129.5141   -13010.829    -13029.48    250.55382    67897.468    -440.0954 
   52000   -13137.382    127.66756   -13009.714    -13019.29    246.98155    67902.118   -225.94144 
   53000   -13137.591    130.64175    -13006.95   -13024.368    252.73533    67921.946    -410.8644 
   54000   -13139.768    126.92405   -13012.844   -13021.817    245.54318    67878.463   -211.80217 
   55000   -13136.643    127.76932   -13008.873   -13013.229    247.17841    67899.219   -102.76907 
   56000   -13138.508    131.36409   -13007.144   -13019.061    254.13275     67902.05    -281.1769 
   57000   -13141.136     127.7041   -13013.432   -13014.787    247.05224     67851.38   -32.003352 
   58000   -13137.188    126.81895   -13010.369   -13004.123    245.33987    67870.002    147.46049 
   59000   -13138.258    130.62149   -13007.636   -13007.971    252.69612    67881.429   -7.8861468 
   60000    -13135.15     127.0854   -13008.065    -12994.29    245.85533    67873.644    325.16878 
Loop time of 758.283 on 1 procs for 60000 steps with 4000 atoms

Performance: 6.836 ns/day, 3.511 hours/ns, 79.126 timesteps/s
99.3% CPU use with 1 MPI tasks x no OpenMP threads

MPI task timing breakdown:
Section |  min time  |  avg time  |  max time  |%varavg| %total
---------------------------------------------------------------
Pair    | 742.84     | 742.84     | 742.84     |   0.0 | 97.96
Neigh   | 0.57411    | 0.57411    | 0.57411    |   0.0 |  0.08
Comm    | 2.7991     | 2.7991     | 2.7991     |   0.0 |  0.37
Output  | 0.10307    | 0.10307    | 0.10307    |   0.0 |  0.01
Modify  | 10.246     | 10.246     | 10.246     |   0.0 |  1.35
Other   |            | 1.722      |            |       |  0.23

Nlocal:    4000 ave 4000 max 4000 min
Histogram: 1 0 0 0 0 0 0 0 0 0
Nghost:    8195 ave 8195 max 8195 min
Histogram: 1 0 0 0 0 0 0 0 0 0
Neighs:    320013 ave 320013 max 320013 min
Histogram: 1 0 0 0 0 0 0 0 0 0

Total # of neighbors = 320013
Ave neighs/atom = 80.0032
Neighbor list builds = 50
Dangerous builds = 0
unfix 1
undump 2

######################################
# SIMULATION DONE
print "All done"
All done
Total wall time: 0:12:38
