ITEM: TIMESTEP
1
ITEM: NUMBER OF ATOMS
4
ITEM: BOX BOUNDS pp pp pp
0.0000000000000000e+00 4.0000000000000000e+00
0.0000000000000000e+00 4.0000000000000000e+00
0.0000000000000000e+00 4.0000000000000000e+00
ITEM: ATOMS id type xs ys zs c_csym c_eng 
1 1 0 0 0 0 -3.31259 
2 1 0.5 0.5 0 0 -3.31259 
3 1 0.5 0 0.5 0 -3.31259 
4 1 0 0.5 0.5 0 -3.31259 
