# LAMMPS data file written by OVITO
4000 atoms
1 atom types
-16.4245873 24.5024452 xlo xhi
-16.4245873 24.5024452 ylo yhi
-16.4245873 24.5024452 zlo zhi

Atoms # atomic

8 1 -14.4306593 -14.2272892 -12.3557778
43 1 -14.2955341 -12.2154064 -14.361619
402 1 -12.1133747 -14.2696896 -14.4382963
445 1 -12.2364826 -12.3199749 -12.2337818
405 1 -12.4112454 -16.3833714 -12.4283247
2 1 24.7033959 -14.1741324 -14.4597702
5 1 -16.1570683 24.5941201 -12.4311562
3 1 -14.303278 -16.0988426 -14.4370928
408 1 -10.2637997 -14.4784699 -12.4469748
443 1 -10.2496796 -12.1437016 -14.3463535
802 1 -8.0311079 -14.5749474 -14.4590378
845 1 -8.3440361 -12.3280373 -12.1921997
805 1 -8.3413344 -16.2741833 -12.1920776
403 1 -10.1195326 -16.4910393 -14.5158816
841 1 -7.955557 -12.2238779 -16.6701279
808 1 -6.2002783 -14.4001722 -12.251585
843 1 -6.2593355 -12.3498917 -14.3800936
1202 1 -4.1964903 -14.7334662 -14.5362225
1245 1 -4.2734327 -12.473074 -12.4945565
804 1 -6.0392714 -14.5240059 -16.4124165
1243 1 -2.2219248 -12.2808895 -14.3474751
1602 1 0.1016254 -14.4933882 -14.430315
1645 1 0.3034763 -12.5918484 -12.2314491
1208 1 -1.968463 -14.480381 -12.3842049
1641 1 0.0016003 -12.3620024 -16.3863583
1601 1 -0.1965275 24.3509331 -16.5413285
1643 1 2.1714687 -12.4713469 -14.5128441
1608 1 2.0911713 -14.5357151 -12.2626763
2002 1 4.0131855 -14.347393 -14.2130299
2045 1 4.0927887 -12.3799534 -12.3079825
2008 1 6.2836533 -14.4524327 -12.2254734
2043 1 6.1720867 -12.6222649 -14.2452107
2004 1 6.0275326 -14.5176449 24.4258728
2005 1 3.8714562 24.2665825 -12.3678017
2041 1 3.9812222 -12.2786379 -16.1823292
2001 1 3.9576474 24.2809067 -16.5127697
2402 1 8.0233803 -14.6078196 -14.5148907
2408 1 10.2510815 -14.533619 -12.5698948
2443 1 10.2888966 -12.3625546 -14.2746449
2445 1 8.3199768 -12.5196696 -12.4224262
2441 1 7.8929462 -12.6722088 24.2846336
2401 1 8.2791729 -16.5511494 24.5098114
2802 1 12.2817154 -14.3729401 -14.1880026
2808 1 14.452158 -14.2852087 -12.3382073
2843 1 14.184988 -12.3171101 -14.4041386
2845 1 12.2004757 -12.4405165 -12.3496056
2805 1 12.2869949 -16.5404015 -12.2030869
2804 1 14.2858696 -14.3068628 24.5470581
2841 1 12.3269405 -12.2678738 -16.4332562
3202 1 16.4134216 -14.3654947 -14.4144192
3208 1 18.391304 -14.5039311 -12.2331677
3243 1 18.5478897 -12.4993248 -14.3235035
3245 1 16.2567101 -12.2334547 -12.3148584
3205 1 16.4025345 24.3253136 -12.4699517
3203 1 18.2557106 -16.2918987 -14.5901718
3241 1 16.3879242 -12.4336043 24.4475632
3204 1 18.5479317 -14.4134245 24.4191589
45 1 24.3495827 -12.3075323 -12.466898
3602 1 20.4777642 -14.3981667 -14.3920727
3608 1 22.5739212 -14.48907 -12.4154892
3643 1 22.3328209 -12.2364006 -14.5843487
3645 1 20.5754967 -12.3981362 -12.3450794
3604 1 22.6468125 -14.3742123 24.711174
3641 1 20.2503739 -11.9950142 -16.3281288
48 1 -14.2857571 -10.2025738 -12.4841118
83 1 -14.2153826 -8.1064949 -14.4486304
485 1 -12.1799622 -8.1600685 -12.3505707
442 1 -12.176321 -10.0905972 -14.5056496
85 1 24.651825 -8.2777338 -12.4869404
42 1 24.5024452 -10.2404308 -14.437768
44 1 -14.3995304 -10.2646599 -16.5335655
483 1 -10.2434178 -8.1026077 -14.4145422
842 1 -8.3468599 -10.1124115 -14.4367943
885 1 -8.1737795 -8.2334509 -12.4197178
448 1 -10.1630383 -10.1195326 -12.0862808
848 1 -6.2618322 -10.3767586 -12.4600964
883 1 -6.2013426 -8.0079432 -14.3587456
1242 1 -4.3054791 -10.2468977 -14.3180275
1285 1 -4.2379503 -8.2427416 -12.1764021
1281 1 -4.1453724 -8.1863031 24.4157219
1248 1 -2.2080507 -10.3551502 -12.4268189
1283 1 -2.1997833 -8.2905035 -14.5175066
1642 1 0.2435608 -10.3090248 -13.998601
1685 1 -0.0582352 -8.240777 -12.350277
1681 1 -0.1035824 -8.2548971 24.6068077
1244 1 -2.1239042 -10.3028441 -16.490839
1648 1 2.0630131 -10.3628435 -12.1217232
1683 1 1.9377766 -8.1766853 -14.236661
2042 1 3.8681812 -10.1942654 -14.0271635
2085 1 4.2567825 -8.3793154 -12.0819426
2048 1 6.1364002 -10.5529089 -12.4026718
1644 1 1.9441606 -10.134716 -16.3096905
2081 1 4.1861038 -8.442915 -16.2064552
2083 1 6.2259464 -8.5317679 -14.230403
2442 1 8.2325573 -10.6375466 -14.4988108
2448 1 10.3547878 -10.3098431 -12.355114
2483 1 10.1783123 -8.3001213 -14.5800429
2485 1 8.3444519 -8.3168192 -12.2542458
2842 1 12.2163563 -10.3490925 -14.4384022
2848 1 14.0960922 -10.3752442 -12.5166941
2883 1 14.1139774 -8.2348423 -14.3769179
2885 1 12.2720165 -8.212946 -12.1814365
2844 1 14.4426213 -10.3410702 -16.4368534
2881 1 12.3050861 -8.4069815 24.4884072
3242 1 16.3269425 -10.2517681 -14.27952
3248 1 18.4406624 -10.4093371 -12.1955147
3283 1 18.2627907 -8.3304072 -14.0955362
3285 1 16.0905495 -8.3342953 -12.172514
3281 1 16.1601677 -8.3427668 24.4099503
3642 1 20.2868767 -10.1766663 -14.4191179
3648 1 22.5892296 -10.2621222 -12.285923
3683 1 22.2348442 -8.3563957 -14.4975176
3685 1 20.3898125 -8.1423473 -12.2477379
88 1 -14.5363045 -6.3387747 -12.3056908
123 1 -14.5269928 -4.257226 -14.3883486
482 1 -12.2428265 -6.1073332 -14.5079575
525 1 -12.6111822 -4.1491375 -12.3576107
82 1 24.4134293 -6.0100489 -14.4685946
125 1 24.3807678 -4.154541 -12.3457089
521 1 -12.6558008 -4.0348692 24.2151375
488 1 -10.3328438 -6.0552321 -12.2677517
523 1 -10.4232521 -3.910778 -14.2319946
882 1 -8.3154688 -6.1054907 -14.4611902
925 1 -8.3063421 -4.2324247 -12.3396683
921 1 -8.2219505 -4.0836954 -16.276804
484 1 -10.2623673 -6.0571556 24.3902245
888 1 -6.3430729 -6.257371 -12.2968102
923 1 -6.2253666 -4.1362047 -14.3037815
1282 1 -4.0382662 -6.2394037 -14.112627
1325 1 -4.3678932 -4.1310892 -12.4020453
1321 1 -4.0150204 -4.1855631 -16.2341728
1288 1 -2.0490894 -6.1047125 -12.2834673
1323 1 -2.0215454 -4.1872816 -14.3242321
1682 1 -0.1140194 -6.2015877 -14.4735384
1725 1 0.1445179 -4.1980867 -12.1607266
1284 1 -2.1181345 -6.1318064 -16.4206276
1723 1 2.014719 -4.1159048 -14.4447909
1688 1 2.0892048 -6.2972345 -12.2382021
2082 1 4.0852585 -6.3348465 -14.3366451
2125 1 4.1858158 -4.3425589 -12.2259655
2123 1 6.2230415 -4.3117819 -14.309494
2088 1 6.008215 -6.2861424 -12.2267418
2121 1 4.2799072 -4.0482931 -16.3411904
1684 1 2.2144013 -6.0855999 24.4313545
2482 1 8.2152062 -6.0965271 -14.1811142
2488 1 10.3507366 -6.1775627 -12.4978638
2523 1 10.3408318 -4.2626686 -14.4053707
2525 1 8.0785103 -4.0794802 -12.0307026
2882 1 12.1693306 -6.3388567 -14.5920019
2888 1 14.1787243 -6.2491036 -12.427907
2923 1 14.3349419 -4.5742464 -14.5025883
2925 1 12.4198437 -4.3201714 -12.1277399
2921 1 12.1960964 -4.18855 24.5777512
2884 1 14.19804 -6.2710409 24.2015076
3282 1 16.431675 -6.250741 -14.2266293
3288 1 18.3103104 -6.1689692 -12.1578217
3323 1 18.4041138 -4.2390957 -14.2803955
3325 1 16.0925941 -4.1505709 -12.5597325
3321 1 16.4575005 -4.2253437 -16.390831
3682 1 20.3424187 -6.373972 -14.2570267
3688 1 22.4481926 -6.1848488 -12.0264044
3723 1 22.3763657 -4.0976934 -14.5555401
3725 1 20.3197022 -4.0574617 -12.2875595
3721 1 20.3573952 -4.0486612 24.7504616
3684 1 22.2208023 -6.0263786 -16.3576946
163 1 -14.3772659 -0.2209206 -14.3278999
522 1 -12.5339289 -2.3236294 -14.4685784
565 1 -12.5264635 -0.2852574 -12.369009
128 1 -14.6670246 -2.1908608 -12.2427864
165 1 24.4266892 -0.2102394 -12.018301
124 1 -14.5746203 -2.0395136 24.5335465
561 1 -12.4519472 -0.1392708 -16.2341251
528 1 -10.4661436 -2.1306982 -12.2580109
563 1 -10.3331719 -0.1684513 -14.3359165
922 1 -8.1228256 -2.1296349 -14.3644314
965 1 -8.1380501 -0.0924091 -12.2330856
524 1 -10.395298 -2.2461949 -16.4342404
961 1 -8.4558487 0.0860329 24.4730187
928 1 -6.1793232 -2.0799894 -12.3005333
963 1 -6.3095942 -0.2456818 -14.292923
1322 1 -4.1105022 -2.116333 -14.2850123
1365 1 -4.1170101 -0.0703907 -12.5124789
924 1 -6.2086678 -2.1512852 24.4247246
1328 1 -2.1003714 -2.459261 -12.2977924
1363 1 -2.0678759 -0.0798435 -14.4060459
1722 1 0.0566464 -2.0782299 -14.2695742
1765 1 0.0923767 -0.1492577 -12.6302834
1761 1 -0.1381245 -0.0987129 -16.3346844
1324 1 -2.0190086 -2.246727 -16.3116379
1728 1 2.11409 -2.006526 -12.3331814
1763 1 2.1719189 0.1292515 -14.3961201
2122 1 3.8965436 -2.2183228 -14.2218619
2165 1 4.111166 0.0414219 -12.4294052
2163 1 6.2031498 -0.3213158 -14.4497185
2128 1 6.2246361 -2.2116928 -12.2410259
2124 1 6.3078823 -2.1746531 24.347332
2161 1 4.285923 -0.0224247 24.5380516
2522 1 8.3900871 -2.346261 -14.4410467
2528 1 10.3020744 -2.3629589 -12.3268499
2563 1 10.2557449 -0.1315365 -14.2741089
2565 1 8.2907562 -0.19133 -12.3181324
2922 1 12.3157253 -2.1970816 -14.4297543
2928 1 14.1575661 -2.2277775 -12.5110836
2963 1 14.4284611 -0.0011826 -14.4613791
2965 1 12.479599 -0.0178394 -12.3514347
2924 1 14.2844792 -2.1804657 -16.402134
3322 1 16.1491585 -2.0835915 -14.5060835
3328 1 18.3582726 -2.2036305 -12.3138762
3363 1 18.2188339 -0.0759563 -14.1548109
3365 1 16.3478966 -0.243103 -12.2157326
3368 1 18.2814942 1.9514446 -12.1732922
3362 1 16.3158112 2.0054684 -14.6290369
3361 1 16.4021263 -0.0766525 -16.4450302
3324 1 18.469719 -2.0516682 -16.3088093
122 1 24.4445343 -2.1405211 -14.4325171
3722 1 20.4543534 -2.0867023 -14.276638
3728 1 22.1993179 -2.250164 -12.148859
3763 1 22.4732857 -0.1408672 -14.3047552
3765 1 20.319252 -0.0099831 -12.370245
161 1 24.4880791 -0.1145916 24.6063996
562 1 -12.3121567 2.0107079 -14.1319332
168 1 -14.4402237 1.8435632 -12.334074
203 1 -14.3558445 3.9483986 -14.4011021
605 1 -12.6905108 3.994032 -12.3627634
208 1 -14.6066618 6.1361122 -12.5286656
602 1 -12.3397131 5.9698658 -14.2625065
204 1 -14.6053067 6.214201 -16.4899273
962 1 -8.3433399 1.884449 -14.5175143
568 1 -10.2124777 1.8424568 -12.3801823
603 1 -10.4170303 4.0316429 -14.2311278
1005 1 -8.446476 4.1328163 -12.4050741
608 1 -10.1985216 6.0175476 -12.4360924
604 1 -10.4525557 6.0142708 24.3389015
968 1 -6.1970854 2.2335148 -12.3209973
1362 1 -4.04461 2.0913334 -14.4445658
1003 1 -6.1532526 4.2120896 -14.7913037
1405 1 -4.291687 4.1732941 -12.4626665
1008 1 -6.2647381 6.0400143 -12.3314743
1402 1 -4.2244024 6.0519657 -14.6070633
1004 1 -6.2183676 6.2238579 24.347374
1368 1 -1.9971944 1.8195782 -12.3688946
1762 1 -0.1011677 1.9954414 -14.339674
1403 1 -2.1015177 3.9281388 -14.2313767
1805 1 0.0308628 4.0038128 -12.4261065
1802 1 -0.009573 5.7956391 -14.5212097
1408 1 -2.0637007 6.0161953 -12.5478392
1801 1 -0.1081257 4.0064735 24.3842888
1364 1 -2.1352415 1.90794 24.5851174
1768 1 2.1424103 2.1227665 -12.3718777
2168 1 6.0434132 1.846262 -12.5671368
1803 1 2.0390301 4.0009899 -14.3633785
2162 1 4.261982 1.9606552 -14.4651118
2208 1 5.9495678 6.2570515 -12.1547928
2205 1 4.251585 3.8691636 -12.2683659
2203 1 5.983944 4.1988716 -14.2741747
1764 1 1.956234 2.0687027 -16.4965019
2204 1 6.1939831 5.9929906 24.4157219
2202 1 4.0650826 6.2906113 -14.3523207
2562 1 8.2483978 1.963028 -14.4204636
2568 1 10.3369866 2.0610065 -12.469677
2603 1 9.9455606 4.0505123 -14.3239956
2605 1 8.0691795 3.9669782 -12.4486161
2602 1 8.0563278 6.0233574 -14.2315779
2608 1 10.1608353 6.0088291 -12.2140141
2968 1 14.5950337 1.9557838 -12.3803787
2962 1 12.2844162 2.2538548 -14.2826061
3003 1 14.5066719 4.0895538 -14.3160629
3005 1 12.4428864 4.1276169 -12.3392143
3002 1 12.1253319 6.0263042 -14.2003498
3008 1 14.2245617 6.2156334 -12.4781447
3004 1 14.2071686 6.1267815 -16.258028
3001 1 12.1690006 4.1512337 -16.3927879
3403 1 18.3247566 4.0873051 -14.3667603
3405 1 16.5854378 4.207468 -12.3575249
3408 1 18.3960495 6.2187424 -12.2133598
3402 1 16.3954964 6.1460152 -14.1793099
3364 1 18.2942658 1.7657185 -16.3198624
3401 1 16.5423012 4.21381 -16.3174915
3404 1 18.5333596 6.0195522 24.6898918
3764 1 22.4924355 2.0487709 -16.2993412
162 1 24.4991303 1.908186 -14.2882614
205 1 -16.3744183 3.9695568 -12.2941494
3768 1 22.4716072 1.9684296 -12.3884087
202 1 24.3970604 6.1263294 -14.4160767
3762 1 20.4216919 2.0208168 -14.314189
3803 1 22.460064 3.983801 -14.1893244
3805 1 20.3254318 3.7726975 -12.1735373
3802 1 20.2623215 5.9594728 -14.0759687
3808 1 22.5474434 6.1925087 -12.2672596
3801 1 20.2486534 3.9795036 -16.3676434
3804 1 22.4731598 6.238308 -16.3514347
201 1 24.5646553 3.99395 -16.3667011
243 1 -14.4583054 8.197525 -14.3266554
248 1 -14.1872044 10.201189 -12.2997151
642 1 -12.2987747 10.1389389 -14.4588003
645 1 -12.3038902 8.0343475 -12.2855549
244 1 -14.3837242 9.9803468 24.576931
242 1 -16.380146 10.0346165 -14.2780628
1002 1 -8.4196282 6.1812534 -14.5172196
643 1 -10.4530468 8.1337605 -14.6047173
648 1 -10.2881928 10.0786953 -12.3341999
1042 1 -8.4067774 9.977726 -14.2796993
1045 1 -8.1193457 8.1105957 -12.2837544
644 1 -10.2872515 10.335186 -16.236372
1043 1 -6.1343031 8.2313728 -14.279851
1048 1 -6.2913408 10.1415978 -12.2523213
1442 1 -4.346488 10.3309708 -14.4918366
1445 1 -4.0344601 8.0571442 -12.4572964
1441 1 -4.1800375 8.3082733 24.4864006
1443 1 -2.1818571 8.1765289 -14.3444338
1448 1 -2.2250757 10.1531429 -12.5487232
1842 1 0.0157604 10.2349148 -14.3166123
1845 1 0.0140018 8.0440884 -12.4830237
1843 1 2.0551968 8.2801972 -14.5880156
1841 1 -0.1374703 8.1548786 -16.440773
1808 1 2.0349369 6.1669712 -12.5129986
1848 1 2.0520859 10.2374897 -12.4280262
2242 1 3.9134884 10.3585529 -14.4643622
2245 1 4.0167866 8.2363243 -12.3692789
2243 1 6.0012569 8.2180691 -14.2676468
2248 1 6.0866718 9.977892 -12.2351742
2241 1 4.1992817 8.1705952 24.3719711
2642 1 8.0094662 9.8861752 -14.546875
2643 1 10.183754 7.881649 -14.2462378
2645 1 8.1601582 8.0223179 -12.2408219
2648 1 10.1022701 9.9475652 -12.2195397
3042 1 12.3015652 9.9203892 -14.3005524
3043 1 14.5800553 8.1121903 -14.2984324
3045 1 12.2982082 8.0614433 -12.3530884
3048 1 14.5086785 10.1229363 -12.3823471
3041 1 12.1451016 8.0939808 -16.3904724
3044 1 14.4019795 10.2781735 -16.431675
3442 1 16.3526878 10.2312317 -14.4160891
3443 1 18.367115 8.2192974 -14.1087265
3445 1 16.3819885 8.1327782 -12.1705494
3448 1 18.3199654 10.3021546 -12.2080383
3444 1 18.3519707 10.3694401 -16.390173
3441 1 16.3187561 7.9012548 -16.4362374
245 1 24.6235886 8.173624 -12.2404938
241 1 24.6072197 8.2063656 24.6104927
3842 1 20.3918991 10.3013802 -14.4116612
3843 1 22.3008995 8.1342506 -14.1517983
3845 1 20.3414765 8.2841282 -12.1207409
3848 1 22.4915772 10.0321598 -12.2965231
3841 1 20.2986641 8.1042118 -16.1496067
283 1 -14.4561529 12.4082203 -14.337636
288 1 -14.3967018 14.2610302 -12.124507
682 1 -12.3227158 14.5227986 -14.4450331
685 1 -12.3155956 12.1480885 -12.4049473
284 1 -14.423214 14.5009823 -16.2466354
683 1 -10.5053101 12.4773045 -14.0899124
688 1 -10.3141813 14.3047791 -12.1671124
1082 1 -8.1285963 14.2862377 -14.384121
1085 1 -8.3806658 12.3696251 -12.3582077
1083 1 -6.240509 12.27664 -14.3638048
1088 1 -6.0880566 14.3897858 -12.4335957
1482 1 -4.3311815 14.1767197 -14.8103552
1485 1 -4.1732435 12.0631657 -12.4372549
1483 1 -1.958149 12.2792168 -14.5673676
1488 1 -2.2249537 14.2458019 -12.5190144
1882 1 -0.0453434 14.2958985 -14.33004
1885 1 -0.1371841 12.2568302 -12.4028883
1881 1 0.1331806 12.2308025 -16.7835274
1888 1 1.6975746 14.304615 -12.1848736
1883 1 1.8510514 12.362627 -14.3493939
2282 1 4.02882 14.3104668 -14.4147997
2285 1 3.8837738 12.3983994 -12.1559391
2283 1 6.0552387 12.1918812 -14.2847014
2288 1 6.1781044 14.1766777 -12.3941994
2284 1 6.0728397 14.4757729 24.4661827
1884 1 1.9408054 14.256527 24.3349304
2281 1 4.1346169 12.4700623 24.4207955
2682 1 8.3101978 14.1855583 -14.3239784
2683 1 10.1928406 12.2718105 -14.2670202
2685 1 8.1428051 12.1146927 -12.3264408
2688 1 10.3844204 14.4409428 -12.3498516
3082 1 12.445097 14.2507153 -14.0947752
3083 1 14.2992134 12.3408127 -14.1816425
3085 1 12.3051663 12.0787983 -12.4031181
3088 1 14.5324555 14.3163605 -12.258502
3084 1 14.4016953 14.1335812 -16.3658657
3081 1 12.2445126 12.287241 -16.1208897
3482 1 16.3860016 14.3373165 -14.2419891
3483 1 18.5085984 12.2681275 -14.3374844
3485 1 16.4723549 12.3396664 -12.3045445
3488 1 18.5815315 14.0633907 -12.1856918
3481 1 16.3183479 12.3638973 24.3828583
3484 1 18.5475197 14.4580097 -16.3533821
282 1 24.3840828 14.1618614 -14.3017264
285 1 -16.3238888 12.2689457 -12.4064856
3882 1 20.5129204 14.3183651 -14.2891989
3883 1 22.4400521 12.238987 -14.2637835
3885 1 20.4011459 12.0291557 -12.3360138
3888 1 22.3582382 14.2186279 -12.1750107
281 1 -16.5048294 12.0257568 -16.2876988
3881 1 20.5935059 12.4244271 -16.4103127
3884 1 22.5133515 14.3614216 -16.1824932
323 1 -14.4619026 16.3957825 -14.3853359
722 1 -12.3243532 18.2472382 -14.4629059
725 1 -12.4518614 16.2015839 -12.2834263
328 1 -14.2454519 18.4001007 -12.514885
721 1 -12.2591152 16.5536385 24.5519676
322 1 24.542553 18.4945221 -14.2021179
324 1 -14.3587914 18.2396279 24.4542732
325 1 24.7267266 16.3390999 -12.383379
723 1 -10.1795731 16.3292351 -14.4698143
728 1 -10.2561054 18.1666145 -12.1016693
1122 1 -8.2624684 18.2165871 -14.4610272
1125 1 -8.1899452 16.3113518 -12.4835024
1123 1 -6.1632805 16.2799187 -14.5362759
1128 1 -6.2054758 18.4161873 -12.4932347
1522 1 -4.0968733 18.1708717 -14.6084996
1525 1 -4.1382093 16.3103256 -12.3728924
1523 1 -2.2385817 16.1463318 -14.7783337
1528 1 -2.2530289 18.4936219 -12.3826828
1922 1 -0.0655193 18.1392326 -14.3914385
1925 1 -0.256485 16.6349182 -12.2671375
1524 1 -2.2781992 18.4208527 24.3702507
1923 1 2.0671864 16.322361 -14.5005179
1928 1 1.9996568 18.2070084 -12.370985
2322 1 4.0708103 18.3730087 -14.4291487
2325 1 4.0293121 16.2178307 -12.4088307
2328 1 5.9235364 18.3757477 -12.3481121
2323 1 6.0888004 16.1911049 -14.5082731
2722 1 8.3124085 18.4761048 -14.3472462
2723 1 10.3234387 16.1390877 -14.4288912
2725 1 8.1090412 16.4015122 -12.6999245
2728 1 10.2162094 18.2084389 -12.6213246
2724 1 10.3094425 18.2254639 -16.5134278
3122 1 12.3420811 18.3383446 -14.5666027
3123 1 14.3485718 16.3605042 -14.0955849
3125 1 12.3296814 16.5527382 -12.3937454
3128 1 14.4194985 18.2661476 -12.0127354
3522 1 16.3370514 18.2045937 -14.3505077
3523 1 18.6143952 16.3550606 -14.1879864
3525 1 16.5957909 16.3495369 -12.3443909
3528 1 18.4308777 18.5070038 -12.1251202
3524 1 18.4560089 18.0582771 -16.473795
3521 1 16.4674874 16.4471855 -16.2969418
321 1 24.3493347 16.4379769 -16.3931427
3922 1 20.3680763 18.4340706 -14.3333473
3923 1 22.4812622 16.2972717 -14.3567772
3925 1 20.3951721 16.3886604 -12.0582867
3928 1 22.4732437 18.5721588 -12.2811756
3924 1 22.6840172 18.5873451 24.7770691
3921 1 20.5594139 16.4753037 -16.094698
363 1 -14.3945904 20.6572266 -14.4918823
368 1 -14.3138046 22.3748932 -12.1641655
762 1 -12.272049 22.7957878 -14.3241749
765 1 -12.0166225 20.1828041 -12.2127867
761 1 -12.3924275 20.4203415 -16.4574452
361 1 -16.2021103 20.3278465 24.4460907
362 1 -16.2539578 22.4627228 -14.4724789
364 1 -14.2641716 22.6265145 24.4291039
763 1 -10.3878088 20.5798378 -14.5044585
768 1 -10.4541931 22.5483017 -12.2917757
1162 1 -8.1244211 22.3822594 -14.3257713
1165 1 -8.305892 20.3650093 -12.431922
1161 1 -8.1830702 20.5293312 24.6088524
803 1 -6.3549414 24.3718872 -14.1748982
1205 1 -4.2707319 24.3900185 -12.4088268
1163 1 -6.0128727 20.4516487 -14.3554878
1168 1 -6.2902765 22.3378983 -12.1615048
1562 1 -4.2680311 22.4168053 -14.1991386
1565 1 -4.2520275 20.456482 -12.52102
1201 1 -4.0111723 24.2085075 24.5667
1605 1 0.0819817 24.305996 -12.2552281
1203 1 -1.9769354 24.3281784 -14.2829857
1563 1 -2.140439 20.3833847 -14.4471283
1568 1 -2.1380243 22.5077439 -12.2240009
1962 1 -0.3685436 22.0827179 -14.4451428
1965 1 -0.1026001 20.3415985 -12.1209459
2003 1 5.9663468 24.4712181 -14.4101629
1603 1 1.8303013 24.3843308 -14.3937674
1963 1 2.0515938 20.2659226 -14.384264
1968 1 1.877655 22.3846359 -12.5472622
2362 1 3.8590146 22.3482094 -14.4437962
2365 1 4.0756397 20.4069595 -12.2130318
2363 1 6.0382557 20.4003296 -14.4298363
2368 1 6.1241188 22.5570603 -12.4343243
2405 1 8.2739773 24.460167 -12.3902741
2403 1 10.3812695 24.4331551 -14.6466313
2762 1 8.1705952 22.580101 -14.5536528
2763 1 10.2864819 20.4439163 -14.4223595
2765 1 8.0507603 20.4616776 -12.5886565
2768 1 10.4179382 22.3875389 -12.2889519
2803 1 14.2005806 -16.5324784 -14.0867004
3162 1 12.3123284 22.2880898 -14.3206024
3163 1 14.1809349 20.2829514 -14.3937636
3165 1 12.2442265 20.1870575 -12.3346386
3168 1 14.4498673 22.4336663 -12.3967247
3161 1 12.2057152 20.2738648 24.5184098
2801 1 12.3372135 24.8589212 24.5229073
3563 1 18.3159561 20.4814453 -14.2687273
3562 1 16.3714714 22.3317566 -14.3142214
3565 1 16.2127152 20.4153061 -12.2158146
3568 1 18.3480835 22.4642792 -12.3714733
3564 1 18.2101593 22.7163887 24.4619293
3603 1 22.4972649 -16.3917065 -14.3277769
3605 1 20.2949829 24.4954033 -12.4786568
365 1 -16.3665791 20.4948273 -12.2442188
3962 1 20.4269715 22.6331826 -14.3458748
3963 1 22.5309487 20.5112839 -14.343051
3965 1 20.4335633 20.6095467 -12.3735476
3968 1 22.7373009 22.5606194 -12.4346638
3601 1 20.652195 -16.2729836 -16.427517
3964 1 22.3930245 22.5316048 -16.4130955
3961 1 20.3769188 20.525074 -16.4753361
12 1 -14.31705 -14.4674769 -8.2385254
47 1 -14.4906168 -12.4113236 -10.2813168
406 1 -12.3239031 -14.2886467 -10.3344402
449 1 -12.4416256 -12.1238108 -8.3647852
49 1 24.4644242 -12.316823 -8.3731756
412 1 -10.1499004 -14.3528977 -8.0642586
447 1 -10.2387524 -12.2317352 -10.1324244
806 1 -8.2722902 -14.3365059 -10.3700466
849 1 -8.1526203 -12.4167261 -8.0926619
812 1 -6.2515183 -14.5116129 -8.343545
847 1 -6.3003035 -12.3870335 -10.4187088
1206 1 -4.1100111 -14.5821591 -10.426035
1249 1 -4.3711262 -12.4528113 -8.4244576
1209 1 -3.9880906 -16.4878693 -8.4892855
1212 1 -2.229619 -14.3946266 -8.4281817
1247 1 -2.3684435 -12.3964825 -10.4405642
1606 1 0.0756378 -14.418025 -10.0441446
1649 1 -0.2114258 -12.3504734 -8.2006273
1207 1 -2.1237412 24.3256378 -10.4408512
1609 1 -0.0257397 24.2578659 -8.1850748
1612 1 2.0776253 -14.5013323 -7.9827318
1647 1 2.0435314 -12.2897291 -10.1492863
2006 1 3.949463 -14.6171389 -10.2211132
2049 1 4.0680676 -12.4037933 -8.0934811
2047 1 6.0409985 -12.3750496 -10.1970482
2012 1 5.9730186 -14.3238678 -8.0679016
2009 1 4.1753368 24.3704529 -8.1433296
1607 1 1.9728108 24.4888153 -10.1837473
2406 1 8.2871132 -14.3969555 -10.1926689
2412 1 10.0664558 -14.2127762 -8.2863293
2447 1 10.3025246 -12.2580929 -10.3167591
2449 1 7.9278564 -12.4285164 -8.1752939
2409 1 8.0204334 24.5814362 -8.0190754
2806 1 12.3131065 -14.4157868 -10.3708649
2812 1 14.4865361 -14.3548374 -8.3315535
2847 1 14.2512474 -12.4977036 -10.299366
2849 1 12.2620297 -12.411974 -8.3616753
2809 1 12.3358193 -16.3847923 -8.1703825
2807 1 14.4531822 24.439663 -10.3215885
3206 1 16.4374466 -14.4699574 -10.3380413
3212 1 18.4815865 -14.3809738 -8.1516781
3247 1 18.5110131 -12.3810368 -10.3273602
3249 1 16.4433785 -12.3749848 -8.2799854
6 1 24.470398 -14.6276617 -10.5783243
3606 1 20.5445557 -14.5313721 -10.3214255
3612 1 22.4881401 -14.4102936 -8.3970776
3647 1 22.5386849 -12.436842 -10.3154507
3649 1 20.4712563 -12.4011612 -8.4248257
3607 1 22.2165489 24.4015579 -10.3803196
9 1 -16.2392864 -16.3500328 -8.2777338
3609 1 20.4745293 -16.5280609 -8.3527527
52 1 -14.2675686 -10.3181105 -8.4029713
87 1 -14.4577484 -8.3306112 -10.2906895
446 1 -12.2940674 -10.110651 -10.3304291
489 1 -12.4162426 -8.278266 -8.2835455
89 1 -16.4186974 -8.3913479 -8.3383064
452 1 -10.6189232 -10.234087 -8.1987858
487 1 -10.0827799 -8.0389662 -10.4311505
846 1 -8.1932201 -10.3391876 -10.1254673
889 1 -8.2415552 -8.295619 -8.2879248
852 1 -6.281436 -10.3363228 -8.1869164
887 1 -6.2803717 -8.453516 -10.151619
1246 1 -4.2745791 -10.4935236 -10.5520897
1289 1 -4.3123961 -8.3266831 -8.3820572
1252 1 -2.4313889 -10.2784519 -8.2422505
1287 1 -1.961629 -8.3328219 -10.3315754
1646 1 -0.1491757 -10.4594307 -10.285614
1689 1 -0.2266102 -8.2009134 -7.9440966
1652 1 2.0322361 -10.1962299 -8.0579557
1687 1 1.6842747 -8.3016758 -10.2639237
2046 1 4.1416149 -10.316515 -10.241045
2089 1 3.9005548 -8.1597824 -8.3541451
2052 1 5.8826524 -10.2826271 -8.1071091
2087 1 6.3346901 -8.4466801 -10.1837063
2446 1 8.0578003 -10.5526219 -10.2275791
2452 1 9.9920922 -10.5699749 -8.1291695
2487 1 10.1211777 -8.5627089 -10.3289566
2489 1 8.2474136 -8.4075136 -8.1042442
2846 1 12.458807 -10.2834044 -10.2762833
2852 1 14.3487339 -10.5133324 -8.2560015
2887 1 14.3446407 -8.233738 -10.1709776
2889 1 12.0639839 -8.5944271 -8.1173
3246 1 16.170929 -10.2471428 -10.1883307
3252 1 18.5244789 -10.4218197 -8.4103375
3287 1 18.4845352 -8.4194241 -10.4040165
3289 1 16.5467224 -8.3032322 -8.3090019
46 1 -16.3191757 -10.4111786 -10.4882851
3646 1 20.6366005 -10.4455567 -10.4248886
3652 1 22.2508049 -10.4309464 -8.2307911
3687 1 22.566803 -8.278553 -10.3465548
3689 1 20.4787865 -8.2082396 -8.5339775
92 1 -14.3812847 -6.1788321 -8.42589
127 1 -14.7097321 -4.0427675 -10.2969513
486 1 -12.4101124 -6.4088011 -10.3373051
529 1 -12.3112564 -4.4513836 -7.9912044
129 1 -16.341713 -4.3545103 -8.178895
492 1 -10.4617634 -6.2706719 -8.1764803
527 1 -10.3909197 -4.3382607 -10.3549042
886 1 -8.0557861 -6.1028309 -10.4185047
929 1 -8.3107205 -4.0084305 -8.3421536
892 1 -6.0651779 -6.3251057 -8.1864262
927 1 -6.4647484 -4.044528 -10.4594307
1286 1 -4.4726258 -6.2825003 -10.3412752
1329 1 -4.0758781 -4.2001743 -8.4227801
1292 1 -2.1595106 -6.1877136 -8.1223335
1327 1 -2.1343002 -4.1668596 -10.1803503
1686 1 -0.1625176 -6.2038794 -10.1129427
1729 1 0.1485691 -4.0277481 -8.4008427
1727 1 2.052412 -4.1106262 -10.5375614
1692 1 1.8668098 -6.2742329 -8.2153616
2086 1 3.9537202 -6.2309322 -10.17593
2127 1 6.2492752 -4.4138947 -10.1370907
2129 1 4.0891857 -4.1190968 -8.3579922
2092 1 6.0723476 -6.4373675 -8.1173821
2486 1 8.0210876 -6.2979708 -10.3723383
2492 1 10.2923336 -6.4090061 -8.2404499
2527 1 10.2415848 -4.2497358 -10.2096539
2529 1 8.0084 -4.1317444 -8.2403269
2886 1 12.2308426 -6.3996334 -10.2163248
2892 1 14.427887 -6.2371941 -8.1849117
2927 1 14.4428272 -4.2064362 -10.2937584
2929 1 12.3672524 -4.1605158 -8.2805987
3286 1 16.3071747 -6.3120089 -10.258152
3292 1 18.2478142 -6.1837015 -8.3475552
3327 1 18.2211685 -4.3235684 -10.2351103
3329 1 16.3095093 -4.2240343 -7.9885436
86 1 24.5073586 -6.33988 -10.2692032
3686 1 20.2362099 -6.1741657 -10.3273602
3692 1 22.5841942 -6.1275911 -8.2893982
3727 1 22.5978241 -4.3335142 -10.2217684
3729 1 20.5169716 -4.2933245 -8.4370632
132 1 -14.3380661 -2.1202211 -8.0874643
167 1 -14.3728781 -0.332077 -10.110651
569 1 -12.4631653 0.0207539 -8.1256895
526 1 -12.4563637 -2.1752682 -10.313036
126 1 24.2419434 -1.9700184 -10.0141449
532 1 -10.5122681 -2.1730986 -8.4687004
567 1 -10.4783402 0.021122 -10.1529694
926 1 -8.42237 -2.229209 -10.3431988
969 1 -8.2295227 -0.0312634 -8.367487
932 1 -6.1728163 -2.10606 -8.3894243
967 1 -6.013773 -0.1087399 -10.210186
1326 1 -4.0417042 -2.1488695 -10.2279472
1369 1 -4.0143242 -0.0299549 -8.3114576
1332 1 -1.9669086 -2.0800715 -8.1354714
1367 1 -2.1045866 -0.1971417 -10.3468409
1726 1 -0.071537 -2.1245995 -10.5069065
1769 1 -0.0274162 -0.2123661 -8.3396559
1767 1 2.165453 -0.2165413 -10.3604298
1732 1 2.0233955 -2.0625954 -8.3835716
2126 1 4.3350353 -2.1155558 -10.2591753
2169 1 4.0259552 -0.0533657 -8.2452374
2167 1 6.0960026 -0.102396 -10.6448717
2132 1 6.1406956 -2.0198689 -8.2705717
2526 1 8.3541927 -2.0405769 -10.3430348
2532 1 10.3065758 -2.3056612 -8.326355
2567 1 10.3044891 -0.1249466 -10.43643
2569 1 8.0995865 -0.050787 -8.4298191
2926 1 12.2124672 -2.291132 -10.3584643
2932 1 14.301014 -2.140316 -8.2019777
2967 1 14.2866898 -0.0537338 -10.4153118
2969 1 12.2004757 -0.1798306 -8.4675942
3326 1 16.3178177 -2.1658144 -10.2592163
3332 1 18.3880692 -2.3042698 -8.0190754
3367 1 18.2707329 -0.0928593 -10.2288895
3369 1 16.3742142 -0.2205925 -8.2668476
169 1 24.3778229 -0.0942097 -8.0984736
3726 1 20.1317673 -2.0562115 -10.3706608
3732 1 22.3286057 -2.1432228 -8.1757851
3767 1 22.1324844 -0.2457218 -10.0793829
3769 1 20.3031273 -0.2034035 -7.9997168
172 1 -14.7405339 1.8215027 -8.257844
566 1 -12.5797673 1.7279015 -10.3272781
207 1 -14.3737173 4.0565681 -10.1974573
609 1 -12.4319754 3.863802 -8.3097391
606 1 -12.1894989 6.0097294 -10.292572
212 1 -14.176858 6.107584 -8.2124148
206 1 -16.2281056 5.9545594 -10.3184376
572 1 -10.3489685 1.9404774 -8.2871475
966 1 -8.274787 1.9658508 -10.3422566
607 1 -10.4376173 3.8312664 -10.5202904
1009 1 -8.203042 4.0626259 -8.2658653
612 1 -10.3870716 5.7929383 -8.2692623
1006 1 -8.4489317 5.9814492 -10.0604744
972 1 -6.1632385 2.1454392 -8.3651133
1366 1 -4.236845 2.0965729 -10.5444775
1007 1 -6.2671938 4.1539745 -10.3393517
1409 1 -4.1866264 4.3005352 -8.2218685
1012 1 -6.1613569 6.0444775 -8.0720348
1406 1 -4.3505802 6.0020351 -10.2915897
1766 1 0.0609856 2.1007481 -10.4390497
1372 1 -2.1326637 1.9268894 -8.3802557
1407 1 -2.1902475 4.0140858 -10.4818592
1809 1 0.2550202 4.2657871 -8.1649389
1806 1 -0.1644402 6.0515556 -10.4283676
1412 1 -2.1269751 5.9819814 -8.2678299
1772 1 2.0933399 1.8492088 -8.3371601
1812 1 2.0671463 6.1603813 -8.2975426
2166 1 3.9266262 1.9059754 -10.3692284
1807 1 2.0192623 4.0398293 -10.4685574
2209 1 4.0688458 4.0536633 -8.1167679
2206 1 3.9490948 5.9965096 -10.4252167
2207 1 6.0058403 4.062952 -10.1329565
2212 1 6.2569275 5.9935208 -8.0510798
2172 1 5.9847222 1.9753056 -8.4285908
2566 1 8.0283737 1.8279686 -10.5494709
2572 1 10.1248207 1.8131943 -8.398346
2607 1 10.0380955 3.7902565 -10.1992588
2609 1 8.1836491 3.8557816 -8.2261658
2612 1 10.3961258 5.8736898 -8.3375692
2606 1 8.0201454 6.0768509 -10.3208933
2972 1 14.3757057 1.963438 -8.1226206
2966 1 12.2887955 1.8967668 -10.3028441
3007 1 14.4483109 4.0262012 -10.2150154
3009 1 12.3259983 3.9725038 -8.1261816
3006 1 12.3481808 6.0926876 -10.3573589
3012 1 14.2352448 5.861002 -8.2400818
3372 1 18.34338 1.9442024 -8.0363874
3366 1 16.452713 2.1069679 -10.2853279
3407 1 18.3650665 3.9300632 -10.0189743
3409 1 16.4547577 4.052433 -8.0989647
3412 1 18.2635269 6.0307674 -8.100234
3406 1 16.4980583 6.1896839 -10.1178131
209 1 24.4074936 4.0805111 -8.2424545
3766 1 20.1796494 2.014473 -9.983491
3772 1 22.2620201 1.9934368 -8.1609688
166 1 -16.5059338 1.7986241 -10.1593552
3807 1 22.4404984 4.0399933 -10.5414906
3809 1 20.4826737 4.2257614 -8.2432737
3812 1 22.4664917 5.9906998 -8.4112377
3806 1 20.329895 5.9595108 -10.4214516
247 1 -14.2265473 8.1849213 -10.2831593
252 1 -14.1703835 10.1349297 -8.2890711
649 1 -12.2553101 8.1882744 -8.2523184
646 1 -12.2330456 10.1833439 -10.2600765
249 1 -16.0821209 8.0750694 -8.542368
647 1 -10.3067322 7.970871 -10.2563925