LAMMPS (17 Nov 2016)
Reading data file ...
  orthogonal box = (-16.4246 -16.4246 -16.4246) to (24.5024 24.5024 24.5024)
  1 by 1 by 1 MPI processor grid
  reading atoms ...
  4000 atoms
Reading potential file AlCu.eam.alloy with DATE: 2008-10-01
Neighbor list info ...
  1 neighbor list requests
  update every 1 steps, delay 10 steps, check yes
  max neighbors/atom: 2000, page size: 100000
  master list distance cutoff = 8.6825
  ghost atom cutoff = 8.6825
  binsize = 4.34125, bins = 10 10 10
Setting up Verlet run ...
  Unit style    : metal
  Current step  : 0
  Time step     : 0.001
Memory usage per processor = 4.0652 Mbytes
Step PotEng KinEng TotEng Enthalpy Temp Volume Press 
       0   -13077.631    180.91896   -12896.712   -12898.254          350    68553.679    -36.04845 
    1000   -13080.308    178.15424   -12902.154    -12917.78    344.65146    68553.679   -365.19134 
    2000   -13082.684    180.60554   -12902.079   -12927.035    349.39366    68553.679   -583.25124 
    3000    -13078.59    181.08704   -12897.503   -12905.236    350.32515    68553.679   -180.73327 
    4000   -13082.282    183.08524   -12899.197   -12920.127    354.19081    68553.679    -489.1448 
    5000   -13079.827    177.19402   -12902.633   -12917.156    342.79385    68553.679    -339.4096 
    6000   -13074.412    179.47183    -12894.94   -12881.472    347.20043    68553.679    314.75507 
    7000   -13078.649    180.12508   -12898.524   -12906.028    348.46417    68553.679   -175.37098 
    8000   -13081.502    179.89653   -12901.606   -12920.622    348.02204    68553.679   -444.43534 
    9000   -13075.938    178.61731    -12897.32   -12892.027     345.5473    68553.679    123.71481 
   10000    -13076.52    181.32784   -12895.192   -12891.324    350.79101    68553.679     90.41707 
   11000   -13083.129    180.14835   -12902.981   -12931.633    348.50919    68553.679   -669.64576 
   12000   -13077.173    181.11203   -12896.061    -12896.51     350.3735    68553.679   -10.500763 
   13000   -13080.121    183.02717   -12897.094   -12908.411    354.07846    68553.679   -264.49933 
   14000   -13079.909    179.35599   -12900.553   -12915.046    346.97632    68553.679   -338.72572 
   15000    -13083.47    179.46802   -12904.002   -12932.315    347.19306    68553.679    -661.7012 
   16000   -13079.321    183.45051    -12895.87   -12906.444    354.89744    68553.679   -247.12361 
   17000   -13076.041    176.87355   -12899.168   -12896.632    342.17387    68553.679    59.250613 
   18000   -13082.786    179.29014   -12903.496    -12932.95    346.84893    68553.679    -688.3735 
   19000    -13077.42    179.03209   -12898.388   -12899.355    346.34971    68553.679   -22.596053 
   20000   -13077.387    182.04014   -12895.346   -12897.784    352.16899    68553.679   -56.977789 
   21000   -13081.038     178.6431   -12902.395   -12922.611    345.59719    68553.679   -472.48562 
   22000   -13080.323    182.66692   -12897.656   -12912.737    353.38155    68553.679   -352.45092 
   23000   -13076.737    180.98184   -12895.756   -12893.884    350.12164    68553.679    43.731387 
   24000   -13082.304    182.81592   -12899.488   -12922.727    353.66979    68553.679   -543.12294 
   25000   -13078.098    182.06723   -12896.031   -12902.067     352.2214    68553.679   -141.06562 
   26000   -13076.557    182.63026   -12893.927   -12891.251    353.31061    68553.679    62.532504 
   27000   -13079.231    178.98118    -12900.25    -12910.88    346.25122    68553.679    -248.4467 
   28000   -13079.899    184.07373   -12895.825   -12907.435    356.10312    68553.679   -271.34369 
   29000   -13074.733    180.08259   -12894.651   -12885.438    348.38199    68553.679    215.31117 
   30000   -13080.296    181.10799   -12899.188    -12912.58    350.36569    68553.679    -312.9804 
   31000   -13078.986    181.28971   -12897.696   -12905.293    350.71723    68553.679   -177.55095 
   32000    -13076.37    183.21761   -12893.152   -12886.048    354.44689    68553.679    166.02369 
   33000   -13081.777    180.53883   -12901.238    -12921.98    349.26461    68553.679   -484.76042 
   34000   -13079.935    181.63002   -12898.305   -12909.598    351.37558    68553.679   -263.94437 
   35000   -13075.437    183.79062   -12891.647   -12880.808    355.55543    68553.679    253.30457 
   36000   -13079.574    184.12031   -12895.454   -12904.921    356.19322    68553.679   -221.27143 
   37000   -13079.955    178.67173   -12901.283   -12913.464    345.65257    68553.679   -284.68427 
   38000   -13077.951    182.78558   -12895.165   -12895.805     353.6111    68553.679   -14.953891 
   39000   -13080.045    183.82437   -12896.221   -12908.603     355.6207    68553.679   -289.38394 
   40000   -13081.289    181.93849    -12899.35   -12916.864    351.97235    68553.679   -409.32579 
   41000   -13080.061    183.21571   -12896.846   -12907.305    354.44321    68553.679   -244.45687 
   42000   -13076.569     183.0904   -12893.478   -12889.362    354.20079    68553.679    96.215816 
   43000   -13080.036    178.26956   -12901.767   -12914.763    344.87455    68553.679   -303.74435 
   44000   -13080.024    183.00844   -12897.016   -12907.678    354.04225    68553.679   -249.18034 
   45000     -13078.4      183.666   -12894.734   -12897.671    355.31433    68553.679   -68.652172 
   46000   -13082.201    180.29353   -12901.907   -12924.215    348.79007    68553.679   -521.35125 
   47000   -13079.966    184.91753   -12895.049   -12904.372    357.73551    68553.679   -217.90618 
   48000   -13081.116    179.77326   -12901.343   -12921.661    347.78356    68553.679   -474.87007 
   49000    -13081.18    179.92192   -12901.258   -12918.219    348.07115    68553.679   -396.40449 
   50000   -13078.382    181.21382   -12897.168   -12904.394    350.57042    68553.679   -168.88164 
   51000   -13078.138    178.99834   -12899.139   -12905.112    346.28443    68553.679   -139.58467 
   52000    -13081.44    176.99316   -12904.447   -12925.144    342.40527    68553.679   -483.72086 
   53000   -13078.146    180.83687   -12897.309   -12904.259    349.84119    68553.679    -162.4138 
   54000   -13079.967    181.26175   -12898.706   -12912.165    350.66315    68553.679    -314.5636 
   55000   -13084.082    179.46335   -12904.618   -12936.311    347.18403    68553.679    -740.7005 
   56000   -13078.702     181.4029   -12897.299   -12902.686    350.93621    68553.679   -125.88467 
   57000   -13080.867    181.98349   -12898.884   -12915.663    352.05941    68553.679   -392.14424 
   58000   -13082.069    177.83029   -12904.239     -12928.3    344.02476    68553.679   -562.33334 
   59000   -13080.105    183.89838   -12896.207   -12907.471    355.76388    68553.679   -263.24905 
   60000   -13078.991    181.02199   -12897.969   -12906.224    350.19932    68553.679   -192.92703 
Loop time of 754.164 on 1 procs for 60000 steps with 4000 atoms

Performance: 6.874 ns/day, 3.491 hours/ns, 79.558 timesteps/s
99.4% CPU use with 1 MPI tasks x no OpenMP threads

MPI task timing breakdown:
Section |  min time  |  avg time  |  max time  |%varavg| %total
---------------------------------------------------------------
Pair    | 742.64     | 742.64     | 742.64     |   0.0 | 98.47
Neigh   | 1.8191     | 1.8191     | 1.8191     |   0.0 |  0.24
Comm    | 2.8672     | 2.8672     | 2.8672     |   0.0 |  0.38
Output  | 0.10224    | 0.10224    | 0.10224    |   0.0 |  0.01
Modify  | 4.9995     | 4.9995     | 4.9995     |   0.0 |  0.66
Other   |            | 1.734      |            |       |  0.23

Nlocal:    4000 ave 4000 max 4000 min
Histogram: 1 0 0 0 0 0 0 0 0 0
Nghost:    8195 ave 8195 max 8195 min
Histogram: 1 0 0 0 0 0 0 0 0 0
Neighs:    315730 ave 315730 max 315730 min
Histogram: 1 0 0 0 0 0 0 0 0 0

Total # of neighbors = 315730
Ave neighs/atom = 78.9325
Neighbor list builds = 156
Dangerous builds = 0
All done
Total wall time: 0:12:34
