LAMMPS (17 Nov 2016)
Lattice spacing in x,y,z = 3.2 3.2 3.2
Created orthogonal box = (0 0 0) to (3.2 3.2 3.2)
  1 by 1 by 1 MPI processor grid
Lattice spacing in x,y,z = 3.2 3.2 3.2
Created 4 atoms
Replicating atoms ...
  orthogonal box = (0 0 0) to (3.2 3.2 3.2)
  1 by 1 by 1 MPI processor grid
  4 atoms
Reading potential file AlCu.eam.alloy with DATE: 2008-10-01
WARNING: Resetting reneighboring criteria during minimization (../min.cpp:168)
Neighbor list info ...
  1 neighbor list requests
  update every 1 steps, delay 0 steps, check yes
  max neighbors/atom: 2000, page size: 100000
  master list distance cutoff = 8.6825
  ghost atom cutoff = 8.6825
  binsize = 4.34125, bins = 1 1 1
Setting up cg style minimization ...
  Unit style    : metal
Memory usage per processor = 3.91479 Mbytes
Step PotEng Lx Ly Lz Press Pxx Pyy Pzz c_eatoms 
       0    1.6158994          3.2          3.2          3.2    2695746.8    2695746.8    2695746.8    2695746.8    1.6158994 
Loop time of 3.09944e-06 on 1 procs for 0 steps with 4 atoms

0.0% CPU use with 1 MPI tasks x no OpenMP threads

Minimization stats:
  Stopping criterion = max iterations
  Energy initial, next-to-last, final = 
         1.61589942219 6.58679228228e-317      1.61589942219
  Force two-norm initial, final = 165.402 165.402
  Force max component initial, final = 165.402 165.402
  Final line search alpha, max atom move = 0 0
  Iterations, force evaluations = 0 0

MPI task timing breakdown:
Section |  min time  |  avg time  |  max time  |%varavg| %total
---------------------------------------------------------------
Pair    | 0          | 0          | 0          |   0.0 |  0.00
Neigh   | 0          | 0          | 0          |   0.0 |  0.00
Comm    | 0          | 0          | 0          |   0.0 |  0.00
Output  | 0          | 0          | 0          |   0.0 |  0.00
Modify  | 0          | 0          | 0          |   0.0 |  0.00
Other   |            | 3.099e-06  |            |       |100.00

Nlocal:    4 ave 4 max 4 min
Histogram: 1 0 0 0 0 0 0 0 0 0
Nghost:    1094 ave 1094 max 1094 min
Histogram: 1 0 0 0 0 0 0 0 0 0
Neighs:    640 ave 640 max 640 min
Histogram: 1 0 0 0 0 0 0 0 0 0

Total # of neighbors = 640
Ave neighs/atom = 160
Neighbor list builds = 0
Dangerous builds = 0
Total energy (eV) = ;
Number of atoms = ;
Lattice constant (Angstoms) = ;
Cohesive energy (eV) = ;
All done!
Total wall time: 0:00:00
