LAMMPS (17 Nov 2016)
# Affiliation: Dept. Materials Science and Engineering
# University of Arizona
# Abduljabar Alsayoud


# Units energy:eV time:ps distance:angstrom flux:energy*velocity
#---------Sim variables---------------
variable fileprefix string  Al101010
variable temp_s equal '400.0'
variable press_s equal '1.0'

#-----------Setup----------------------
units metal            #Energy = eV , Distance= Angstroms
dimension 3
boundary p p p         #Periodic boundary conditions
atom_style atomic

# Read config files

read_data data.${fileprefix}
read_data data.Al101010
  orthogonal box = (-16.1557 -16.1557 -16.1557) to (24.2336 24.2336 24.2336)
  1 by 1 by 1 MPI processor grid
  reading atoms ...
  4000 atoms

pair_style eam/alloy
pair_coeff * *  AlCu.eam.alloy Al
Reading potential file AlCu.eam.alloy with DATE: 2008-10-01
neighbor 2.0 bin
neigh_modify delay 10 check yes


#--------- NPT-------
reset_timestep 0
timestep 0.001

thermo 1000
thermo_style custom step pe ke etotal enthalpy temp vol press
velocity all create ${temp_s} 1518772
velocity all create 400 1518772
fix 1 all npt temp ${temp_s} ${temp_s} 0.5 iso ${press_s} ${press_s} 5
fix 1 all npt temp 400 ${temp_s} 0.5 iso ${press_s} ${press_s} 5
fix 1 all npt temp 400 400 0.5 iso ${press_s} ${press_s} 5
fix 1 all npt temp 400 400 0.5 iso 1 ${press_s} 5
fix 1 all npt temp 400 400 0.5 iso 1 1 5
dump 2 all atom 2000 dump.npt${fileprefix}
dump 2 all atom 2000 dump.nptAl101010
run 60000
Neighbor list info ...
  1 neighbor list requests
  update every 1 steps, delay 10 steps, check yes
  max neighbors/atom: 2000, page size: 100000
  master list distance cutoff = 8.6825
  ghost atom cutoff = 8.6825
  binsize = 4.34125 -> bins = 10 10 10
Memory usage per processor = 4.09116 Mbytes
Step PotEng KinEng TotEng Enthalpy Temp Volume Press 
       0   -13203.173    206.76453   -12996.409   -12770.177          400    65886.855    5501.2822 
    1000   -13043.058    206.53595   -12836.522   -12995.018     399.5578    69240.263   -3667.5039 
    2000    -13046.23    205.56288   -12840.667   -12961.879    397.67533    69148.724   -2808.4879 
    3000   -13056.477    206.65271   -12849.824   -12859.225    399.78369    68804.658   -218.89979 
    4000   -13049.703    207.84879   -12841.854   -12805.135    402.09759    68767.944    855.48621 
    5000   -13040.147    201.89786   -12838.249   -12803.598    390.58511    68847.916    806.36776 
    6000   -13059.135    213.09866   -12846.037   -12882.109    412.25381    68860.975   -839.28042 
    7000   -13046.803    202.01513   -12844.788   -12841.248    390.81197    68865.552    82.357283 
    8000   -13041.486    202.89991   -12838.586   -12817.437    392.52364    68883.636    491.90462 
    9000    -13057.27    212.07824   -12845.191   -12864.701    410.27973    68837.165   -454.07885 
   10000   -13047.473    201.51359   -12845.959   -12833.978    389.84171    68841.949    278.83442 
   11000    -13049.06    206.51537   -12842.544   -12847.893    399.51799    68870.873   -124.43903 
   12000   -13053.856     210.8303   -12843.026    -12861.83    407.86551    68879.087   -437.39652 
   13000   -13050.921    204.64868   -12846.272   -12849.372    395.90674    68848.231    -72.15229 
   14000   -13047.197    204.49111   -12842.706   -12831.319    395.60192    68857.145    264.95613 
   15000   -13049.237    210.94149   -12838.296   -12843.569    408.08062    68884.094   -122.65135 
   16000   -13050.287    203.08931   -12847.198   -12838.466    392.89004    68830.667    203.23494 
   17000   -13050.208    207.19037   -12843.017   -12852.213    400.82382     68878.74   -213.89408 
   18000   -13049.786     211.2444   -12838.542   -12855.348    408.66662     68909.14   -390.75653 
   19000   -13050.597    202.08318   -12848.514   -12827.026    390.94362    68804.301    500.37604 
   20000    -13047.59    205.55859   -12842.031   -12832.702    397.66702    68857.785    217.07216 
   21000   -13045.874    204.93913   -12840.935   -12838.018    396.46864    68886.379    67.825218 
   22000   -13051.191    205.71488   -12845.476   -12856.681    397.96938    68870.255   -260.65647 
   23000   -13056.522    203.98692   -12852.535   -12849.624    394.62652    68784.004    67.801159 
   24000   -13050.376    207.01904   -12843.357   -12840.893    400.49237    68852.064    57.340959 
   25000   -13047.715    207.41282   -12840.302   -12851.939    401.25416    68901.603   -270.57992 
   26000   -13048.516    205.75067   -12842.766   -12851.869    398.03863    68899.943   -211.68481 
   27000   -13050.803    202.66621   -12848.137   -12838.856    392.07152    68821.994    216.06737 
   28000   -13048.835    210.89561    -12837.94   -12837.702    407.99185    68877.432    5.5398474 
   29000   -13052.334    208.82216   -12843.511   -12839.103    403.98062    68833.442    102.61865 
   30000   -13050.731    204.81275   -12845.919   -12850.333    396.22415    68857.645   -102.71817 
   31000   -13045.847    209.83201   -12836.015   -12877.011    405.93426    68999.679   -951.93829 
   32000   -13048.155    203.03292   -12845.122   -12854.676    392.78096     68889.01   -222.20666 
   33000   -13050.077    206.99614   -12843.081    -12811.47    400.44808    68794.329    736.21109 
   34000   -13043.711    210.43535   -12833.276   -12788.478    407.10145    68836.041    1042.6966 
   35000   -13054.222    213.20918   -12841.013   -12866.732    412.46761    68882.673   -598.21757 
   36000   -13051.099    205.40165   -12845.697   -12907.585    397.36342    68982.705   -1437.3913 
   37000   -13046.086    210.58347   -12835.503   -12886.907    407.38801    69020.948   -1193.2345 
   38000   -13048.969    208.13218   -12840.837   -12791.909    402.64581    68763.007    1140.0214 
   39000   -13050.371    207.77765   -12842.594   -12767.113    401.95995    68701.074    1760.2802 
   40000   -13050.131    204.97439   -12845.157   -12846.672    396.53685     68856.05   -35.258036 
   41000   -13048.663    205.76286     -12842.9   -12913.681    398.06221    69030.186   -1642.8025 
   42000   -13047.372    208.78185    -12838.59    -12887.98    403.90265    68998.388   -1146.8459 
   43000   -13053.095    204.09745   -12848.997   -12806.511    394.84035    68735.395      990.337 
   44000   -13051.768    207.64112   -12844.127   -12802.326    401.69582    68746.735      974.181 
   45000   -13045.187    206.13177   -12839.055   -12831.474    398.77588    68900.605    176.28465 
   46000   -13046.487    206.47332   -12840.014   -12885.675    399.43664     68995.23   -1060.3342 
   47000   -13050.944    203.08608   -12847.858   -12864.125    392.88379    68883.502   -378.34684 
   48000   -13049.551    210.34636   -12839.204   -12819.666    406.92929    68838.139    454.74562 
   49000   -13047.574    207.01263   -12840.561   -12799.658    400.47996    68790.579    952.67923 
   50000   -13051.142    205.07646   -12846.065   -12843.294    396.73432    68843.223    64.488729 
   51000   -13043.903    206.18315   -12837.719   -12863.745    398.87528    68984.433   -604.44193 
   52000    -13048.21    207.16767   -12841.042   -12859.045    400.77991    68914.473   -418.53849 
   53000   -13053.221     207.8585   -12845.363   -12835.131    402.11637     68806.05    238.25232 
   54000   -13045.059    209.19048   -12835.869   -12799.195    404.69318    68835.722    853.59441 
   55000   -13049.034    210.11019   -12838.924   -12833.825    406.47241    68869.481    118.62029 
   56000    -13050.22    206.44217   -12843.778   -12869.484    399.37637    68917.615   -597.60662 
   57000   -13046.673    204.34969   -12842.323    -12856.12    395.32833    68928.591   -320.68506 
   58000   -13044.713    208.55293    -12836.16   -12832.633    403.45978     68914.37    81.992886 
   59000   -13051.479    206.42671   -12845.052   -12816.745    399.34646    68781.569     659.3901 
   60000   -13050.526    207.74483   -12842.781   -12830.843    401.89647    68833.175    277.87029 
Loop time of 761.314 on 1 procs for 60000 steps with 4000 atoms

Performance: 6.809 ns/day, 3.525 hours/ns, 78.811 timesteps/s
99.4% CPU use with 1 MPI tasks x no OpenMP threads

MPI task timing breakdown:
Section |  min time  |  avg time  |  max time  |%varavg| %total
---------------------------------------------------------------
Pair    | 739.06     | 739.06     | 739.06     |  -nan | 97.08
Neigh   | 7.2689     | 7.2689     | 7.2689     |   0.0 |  0.95
Comm    | 2.9196     | 2.9196     | 2.9196     |   0.0 |  0.38
Output  | 0.10267    | 0.10267    | 0.10267    |   0.0 |  0.01
Modify  | 10.281     | 10.281     | 10.281     |   0.0 |  1.35
Other   |            | 1.685      |            |       |  0.22

Nlocal:    4000 ave 4000 max 4000 min
Histogram: 1 0 0 0 0 0 0 0 0 0
Nghost:    8195 ave 8195 max 8195 min
Histogram: 1 0 0 0 0 0 0 0 0 0
Neighs:    314009 ave 314009 max 314009 min
Histogram: 1 0 0 0 0 0 0 0 0 0

Total # of neighbors = 314009
Ave neighs/atom = 78.5023
Neighbor list builds = 623
Dangerous builds = 0
unfix 1
undump 2

######################################
# SIMULATION DONE
print "All done"
All done
Total wall time: 0:12:41
