LAMMPS (17 Nov 2016)
# Affiliation: Dept. Materials Science and Engineering
# University of Arizona
# Abduljabar Alsayoud


# Units energy:eV time:ps distance:angstrom flux:energy*velocity
#---------Sim variables---------------
variable fileprefix string  Al101010
variable temp_s equal '350.0'
variable press_s equal '1.0'

#-----------Setup----------------------
units metal            #Energy = eV , Distance= Angstroms
dimension 3
boundary p p p         #Periodic boundary conditions
atom_style atomic

# Read config files

read_data data.${fileprefix}
read_data data.Al101010
  orthogonal box = (-16.1557 -16.1557 -16.1557) to (24.2336 24.2336 24.2336)
  1 by 1 by 1 MPI processor grid
  reading atoms ...
  4000 atoms

pair_style eam/alloy
pair_coeff * *  AlCu.eam.alloy Al
Reading potential file AlCu.eam.alloy with DATE: 2008-10-01
neighbor 2.0 bin
neigh_modify delay 10 check yes


#--------- NPT-------
reset_timestep 0
timestep 0.001

thermo 1000
thermo_style custom step pe ke etotal enthalpy temp vol press
velocity all create ${temp_s} 1518772
velocity all create 350 1518772
fix 1 all npt temp ${temp_s} ${temp_s} 0.5 iso ${press_s} ${press_s} 5
fix 1 all npt temp 350 ${temp_s} 0.5 iso ${press_s} ${press_s} 5
fix 1 all npt temp 350 350 0.5 iso ${press_s} ${press_s} 5
fix 1 all npt temp 350 350 0.5 iso 1 ${press_s} 5
fix 1 all npt temp 350 350 0.5 iso 1 1 5
dump 2 all atom 2000 dump.npt${fileprefix}
dump 2 all atom 2000 dump.nptAl101010
run 60000
Neighbor list info ...
  1 neighbor list requests
  update every 1 steps, delay 10 steps, check yes
  max neighbors/atom: 2000, page size: 100000
  master list distance cutoff = 8.6825
  ghost atom cutoff = 8.6825
  binsize = 4.34125 -> bins = 10 10 10
Memory usage per processor = 4.09116 Mbytes
Step PotEng KinEng TotEng Enthalpy Temp Volume Press 
       0   -13203.173    180.91896   -13022.254   -12813.253          350    65886.855    5082.2896 
    1000   -13072.326    179.76084   -12892.565   -12961.782    347.75953    68704.056   -1614.1487 
    2000   -13081.696     184.1626   -12897.533   -13027.026    356.27503    68778.669   -3016.4799 
    3000   -13082.083    176.81802   -12905.265   -12960.119    342.06644    68601.542   -1281.1074 
    4000   -13084.751    187.65414   -12897.096   -12928.967    363.02966    68545.521   -744.95009 
    5000   -13069.353    173.90084   -12895.452   -12854.748    336.42297    68499.243    952.06306 
    6000   -13082.837     180.8213   -12902.016   -12885.587    349.81107    68453.452    384.51531 
    7000   -13083.479    183.99534   -12899.484   -12895.372    355.95147    68479.151     96.20692 
    8000   -13070.775    175.68187   -12895.093   -12866.762    339.86849    68531.876    662.33032 
    9000   -13079.198    178.00854   -12901.189   -12900.526    344.36959    68517.892    15.508813 
   10000   -13086.168    186.14557   -12900.023   -12930.719    360.11122    68532.104   -717.63672 
   11000   -13075.407    181.40474   -12894.003   -12898.265    350.93976    68568.942   -99.601864 
   12000   -13079.886    179.25291   -12900.633   -12904.151     346.7769    68522.461   -82.266358 
   13000   -13080.774    182.26067   -12898.513   -12897.287    352.59563     68511.86    28.675311 
   14000   -13075.758    182.80577   -12892.952   -12892.666    353.65015    68557.153    6.6892248 
   15000   -13077.345    177.63757   -12899.708   -12888.685    343.65193    68516.509    257.76286 
   16000   -13084.323    185.06317    -12899.26   -12917.885    358.01725    68526.221   -435.46108 
   17000   -13076.569    184.89803   -12891.671   -12907.066    357.69779    68591.463   -359.60851 
   18000   -13074.929    175.74499   -12899.184   -12875.795    339.99061     68505.14    547.00624 
   19000   -13084.854    185.93704   -12898.917   -12911.117     359.7078    68508.062   -285.31049 
   20000   -13078.039    185.01476   -12893.025    -12895.81    357.92359    68556.861   -65.098083 
   21000   -13080.172    181.63201    -12898.54   -12904.834    351.37944    68533.801   -147.13368 
   22000   -13081.966    181.45757   -12900.508   -12919.662    351.04197    68545.516   -447.69585 
   23000   -13077.472    184.21836   -12893.254   -12907.803    356.38292    68581.132   -339.90838 
   24000   -13075.939    182.94183   -12892.998   -12896.543    353.91337    68572.005   -82.847174 
   25000    -13081.38    180.00633   -12901.374   -12892.832    348.23444    68488.197    199.81358 
   26000   -13078.096    180.67364   -12897.423   -12866.446     349.5254    68480.083    724.73864 
   27000   -13074.309    180.07167   -12894.238   -12859.841    348.36085    68500.492    804.51365 
   28000    -13081.89    179.81526   -12902.075   -12891.722    347.86481    68478.896    242.21437 
   29000   -13080.303    184.24891   -12896.055   -12915.416    356.44202    68569.507    -452.3897 
   30000   -13079.686    180.93443   -12898.752    -12934.97    350.02992    68602.254   -845.86251 
   31000   -13079.905    177.14642   -12902.759   -12929.836    342.70176    68579.323   -632.59967 
   32000   -13079.573    182.24427   -12897.328   -12910.122    352.56389    68554.629   -298.99957 
   33000   -13078.797    180.68254   -12898.114   -12865.141    349.54262    68459.509    771.67704 
   34000   -13086.324     178.5573   -12907.767   -12856.699     345.4312    68340.906    1197.2255 
   35000   -13082.593    180.19662   -12902.396   -12880.887    348.60257    68443.696    503.49325 
   36000   -13078.899    182.04281   -12896.856   -12923.936    352.17415    68598.162   -632.47329 
   37000   -13075.974    177.87419   -12898.099    -12953.14    344.10968    68681.829   -1283.9565 
   38000   -13078.628    174.49896   -12904.129   -12943.982    337.58007     68613.73   -930.57736 
   39000   -13078.791    179.75897   -12899.032   -12896.755    347.75592    68529.816    53.243918 
   40000   -13081.006     184.4523   -12896.554   -12858.122    356.83548    68433.395    899.78042 
   41000   -13081.467    178.05695    -12903.41   -12834.159    344.46325    68356.732    1623.1456 
   42000   -13082.953    184.28753   -12898.665   -12882.458    356.51671     68464.51    379.26693 
   43000    -13076.03    178.94622   -12897.083   -12901.169     346.1836    68565.894   -95.472104 
   44000   -13079.597    175.06826   -12904.529   -12935.466    338.68142    68584.483   -722.70298 
   45000   -13080.297    180.51382   -12899.783   -12938.137    349.21622    68606.677   -895.68457 
   46000    -13080.63    182.59741   -12898.033   -12913.131    353.24708    68549.697   -352.87575 
   47000   -13082.955    182.15781   -12900.798    -12888.01    352.39663    68466.858    299.23542 
   48000   -13080.428      181.024   -12899.404   -12863.571     350.2032    68446.992    838.75439 
   49000   -13076.444    182.69496   -12893.749   -12869.928     353.4358     68515.56    557.04193 
   50000   -13082.484    180.28943   -12902.195   -12897.336    348.78213     68489.71    113.67505 
   51000   -13076.938     178.8062   -12898.132   -12906.448    345.91273    68570.694   -194.30268 
   52000   -13073.868    178.31824   -12895.549    -12910.17    344.96872     68608.17   -341.42544 
   53000   -13082.994     178.7678   -12904.226   -12915.905    345.83844     68511.03   -273.11029 
   54000   -13078.994    181.87828   -12897.116   -12888.771    351.85587    68513.135    195.16014 
   55000   -13080.039    182.28218   -12897.756   -12878.697    352.63724    68482.585    445.90256 
   56000   -13084.146    177.20289   -12906.943   -12879.327      342.811    68413.808    646.73962 
   57000   -13081.142    180.54964   -12900.592   -12900.374    349.28552    68514.236    5.1023865 
   58000   -13076.777    180.04133   -12896.736   -12919.044    348.30215    68599.934   -521.02163 
   59000   -13076.855     178.1045   -12898.751   -12928.486    344.55523    68617.533   -694.30247 
   60000   -13077.631     174.0856   -12903.545   -12909.644     336.7804     68553.68   -142.52895 
Loop time of 759.54 on 1 procs for 60000 steps with 4000 atoms

Performance: 6.825 ns/day, 3.516 hours/ns, 78.995 timesteps/s
99.3% CPU use with 1 MPI tasks x no OpenMP threads

MPI task timing breakdown:
Section |  min time  |  avg time  |  max time  |%varavg| %total
---------------------------------------------------------------
Pair    | 740.72     | 740.72     | 740.72     |   0.0 | 97.52
Neigh   | 3.9159     | 3.9159     | 3.9159     |   0.0 |  0.52
Comm    | 2.8645     | 2.8645     | 2.8645     |   0.0 |  0.38
Output  | 0.10356    | 0.10356    | 0.10356    |   0.0 |  0.01
Modify  | 10.246     | 10.246     | 10.246     |   0.0 |  1.35
Other   |            | 1.694      |            |       |  0.22

Nlocal:    4000 ave 4000 max 4000 min
Histogram: 1 0 0 0 0 0 0 0 0 0
Nghost:    8195 ave 8195 max 8195 min
Histogram: 1 0 0 0 0 0 0 0 0 0
Neighs:    315825 ave 315825 max 315825 min
Histogram: 1 0 0 0 0 0 0 0 0 0

Total # of neighbors = 315825
Ave neighs/atom = 78.9562
Neighbor list builds = 337
Dangerous builds = 0
unfix 1
undump 2

######################################
# SIMULATION DONE
print "All done"
All done
Total wall time: 0:12:39
