# LAMMPS data file written by OVITO
4000 atoms
1 atom types
-16.3566971 24.4345551 xlo xhi
-16.3566971 24.4345551 ylo yhi
-16.3566971 24.4345551 zlo zhi

Atoms # atomic

8 1 -14.2056484 -14.3211079 -12.3441467
43 1 -14.3482628 -12.1979065 -14.4076662
402 1 -12.0090027 -14.3744383 -14.2463703
445 1 -12.4066801 -12.3238411 -12.4431153
3 1 -14.2226782 -16.3358956 -14.3226862
405 1 -12.3402147 -16.4697533 -12.2178536
2 1 -16.3066692 -14.3633022 -14.3485928
441 1 -12.3969803 -12.3110533 -16.1392517
401 1 -12.329279 -16.3113365 -16.1882744
408 1 -10.2423325 -14.5718184 -12.0789185
443 1 -10.2667675 -12.1890545 -14.4738179
802 1 -8.2533922 -14.3502245 -14.3090859
845 1 -8.2834559 -12.1907682 -12.4206066
404 1 -10.3210201 -14.2653217 -16.3522778
805 1 -8.0577574 -16.2644463 -12.2337208
403 1 -10.151124 -16.2881947 -14.348589
841 1 -8.4716254 -12.3084755 -16.5854359
801 1 -8.285821 -16.3844948 -16.3519116
808 1 -6.183032 -14.0305805 -12.2405338
843 1 -6.2474012 -12.254076 -14.3779507
1202 1 -4.2748995 -14.2499266 -14.0965433
1245 1 -4.124012 -12.2310696 -12.201129
804 1 -6.4365912 -14.0347977 -16.3830738
803 1 -6.3895588 -16.2701855 -14.2973061
1208 1 -2.1172056 -14.2074432 -12.2459993
1243 1 -2.1607294 -12.1535263 -14.3303146
1602 1 -0.2016487 -14.227561 -14.332819
1645 1 -0.122757 -12.2617455 -12.2031689
1641 1 0.0566425 -12.2530975 -16.4775105
1203 1 -2.0423937 -16.1090012 -14.3431511
1608 1 1.9186002 -14.1028624 -12.4034824
1643 1 1.9384252 -12.0192814 -14.272831
2002 1 4.0716038 -14.1344833 -14.3330107
2045 1 4.0278339 -12.0987835 -12.1744108
2008 1 6.1027622 -14.3227596 -12.2300091
2043 1 6.1161823 -12.1100426 -14.3618698
1603 1 2.0302868 -16.3177376 -14.2541523
2005 1 3.915495 -16.2839756 -12.2569723
1604 1 2.037344 -14.2470913 -16.4216881
2402 1 8.1225414 -14.3699303 -14.3984766
2408 1 10.2538433 -14.253541 -12.4497233
2443 1 10.4130516 -12.2411041 -14.3628044
2445 1 8.3964958 -12.2287855 -12.4522524
2441 1 8.2419777 -12.3619003 -16.1994038
2403 1 10.0321026 -16.3618469 -14.344244
2404 1 10.2975712 -14.3564491 -16.4402294
2405 1 8.0784454 -16.1946106 -12.2457962
2401 1 8.1023903 -16.3275719 -16.3530445
2802 1 12.2517166 -14.4048729 -14.3898449
2808 1 14.2494679 -14.6175413 -12.5402107
2843 1 14.4164276 -12.3814469 -14.382576
2845 1 12.4675846 -12.4750958 -12.3107357
2804 1 14.1855087 -14.4393168 -16.2860184
2841 1 12.3782101 -12.4149284 -16.4427605
3202 1 16.4227028 -14.344697 -14.5616131
3208 1 18.2680588 -14.3348417 -12.3632546
3243 1 18.4328957 -12.2190771 -14.4214669
3245 1 16.4220505 -12.1843224 -12.2514248
3241 1 16.3840752 -12.4586735 -16.5056229
45 1 24.3149529 -12.4257584 -12.227725
3602 1 20.3928757 -14.4273033 -14.4127083
3608 1 22.3805123 -14.3357477 -12.165926
3643 1 22.3238945 -12.5108814 -14.2512608
3645 1 20.3294068 -12.3738842 -12.1839962
3603 1 22.5562401 -16.2989674 -14.3548498
3604 1 22.5060692 -14.4437466 -16.3245182
48 1 -14.5232239 -10.3609953 -12.4594889
83 1 -14.6361714 -8.3307734 -14.361536
442 1 -12.496768 -10.155489 -14.2361679
485 1 -12.3824749 -8.2117853 -12.2911596
42 1 -16.5857334 -10.3351746 -14.243515
481 1 -12.5029717 -8.1193523 -16.2757263
85 1 -16.5164814 -8.2707691 -12.3911142
448 1 -10.2305031 -10.2858982 -12.1235848
483 1 -10.2951985 -8.2975693 -14.3419151
842 1 -8.3349753 -10.309639 -14.1767387
885 1 -8.2034226 -8.2369948 -12.3128719
848 1 -6.231493 -10.3420677 -12.3600683
883 1 -6.3492565 -8.1536989 -14.267108
1242 1 -4.2286415 -10.126976 -14.2938881
1285 1 -4.1581144 -8.2708511 -12.2849426
1248 1 -2.186306 -10.2757006 -12.2225857
1283 1 -2.1949539 -8.2348728 -14.3379707
1642 1 -0.138422 -10.1581802 -14.1258106
1685 1 -0.1179447 -8.1236763 -12.3138762
1244 1 -2.0840006 -10.2835322 -16.5243416
1648 1 2.1920242 -10.2111282 -12.2768374
1683 1 2.0841312 -8.2011795 -14.3403978
2042 1 4.0726223 -10.129056 -14.4838648
2085 1 4.1168804 -8.0276127 -12.1383514
2048 1 5.9181004 -10.1163693 -12.3111191
2083 1 6.0772285 -8.0915737 -14.3132715
1644 1 1.858595 -10.0646877 -16.2273331
2081 1 4.327282 -8.2299776 -16.5026207
2442 1 8.1725521 -10.2177773 -14.3945561
2448 1 10.3600235 -10.1259146 -12.2818384
2483 1 10.2550659 -8.1707497 -14.2923584
2485 1 8.2189713 -8.4404202 -12.3178864
2481 1 7.9007988 -8.0485392 -16.2721844
2444 1 10.2631016 -10.26126 -16.30406
2842 1 12.4370308 -10.2241402 -14.2089157
2848 1 14.4958477 -10.3376217 -12.4512282
2883 1 14.2877712 -8.1651201 -14.3751888
2885 1 12.3888989 -8.2417669 -12.2097769
2881 1 12.2269573 -8.0744 -16.3712673
3242 1 16.3278237 -10.2007675 -14.4558735
3248 1 18.4444008 -10.1778011 -12.2785797
3283 1 18.4970207 -8.1152325 -14.515564
3285 1 16.3265991 -8.1556568 -12.2660694
3642 1 20.3700714 -10.1414566 -14.2900124
3648 1 22.3806343 -10.3495331 -12.3145371
3683 1 22.461525 -8.1799679 -14.2800713
3685 1 20.3241425 -8.2073393 -12.3550186
3644 1 22.318306 -10.1527557 -16.4837113
88 1 -14.2747889 -6.1729164 -12.4322567
123 1 -14.2559471 -4.1756544 -14.3692246
482 1 -12.3298416 -6.1038561 -14.4674053
525 1 -12.1020069 -4.084444 -12.2837477
82 1 -16.4512177 -6.0622091 -14.4077034
125 1 -16.3038502 -4.0541782 -12.3167563
488 1 -10.318368 -6.3419142 -12.1893807
523 1 -10.2663183 -4.1521988 -14.3965998
882 1 -8.2918587 -6.1700611 -14.3136101
925 1 -8.1342821 -4.1395531 -12.4174118
888 1 -6.1694899 -6.2750578 -12.1503029
923 1 -6.2411194 -4.1370659 -14.245513
1282 1 -4.207756 -6.1608009 -14.3640404
1325 1 -4.082324 -4.1952334 -12.3948794
884 1 -6.3430567 -6.224843 -16.2332955
1288 1 -2.217144 -6.2111788 -12.1830998
1323 1 -2.1616278 -4.3149157 -14.3480377
1682 1 -0.0102959 -6.2110968 -14.328764
1725 1 -0.1810894 -4.2399416 -12.2251148
1721 1 -0.0526791 -4.291502 -16.2858868
1688 1 1.9637146 -6.2847662 -12.1028214
1723 1 1.9346714 -4.2044525 -14.0916195
2082 1 3.9466172 -6.0878668 -14.2212305
2088 1 6.3185082 -6.0848885 -12.2789059
2125 1 4.0338306 -4.1546869 -12.069128
2121 1 4.0226116 -4.1515055 -16.2454186
2123 1 6.0973797 -3.9834862 -14.2572489
2084 1 6.1209965 -5.9524394 -16.1656952
1684 1 1.9681206 -6.1723042 -16.4552937
2482 1 8.0646992 -6.143261 -14.2477808
2488 1 10.2292042 -6.3348169 -12.2284184
2523 1 10.0998573 -4.1378002 -14.1292133
2525 1 8.1807079 -3.9483242 -12.0376787
2521 1 8.081995 -4.1294375 -16.3451309
2484 1 10.1442356 -6.0573959 -16.381918
2882 1 12.2162705 -6.1546011 -14.0073986
2888 1 14.320446 -5.9949446 -12.1082068
2923 1 14.4697399 -4.0490789 -14.261446
2925 1 12.2727642 -4.1089611 -12.2644777
2921 1 12.1304455 -4.1186695 -16.1412067
3282 1 16.1751022 -6.2111788 -14.2452402
3288 1 18.2841301 -6.1470547 -12.4546223
3323 1 18.372406 -4.1916847 -14.2673569
3325 1 16.372612 -4.0211773 -12.1053515
3321 1 16.4756089 -4.1841793 -16.4742642
3682 1 20.5119477 -6.1883764 -14.380887
3688 1 22.4696427 -5.9858886 -12.3239155
3723 1 22.3039856 -4.0102043 -14.2579498
3725 1 20.4339943 -4.2580109 -12.2267866
128 1 -14.2402754 -2.131074 -12.4361029
163 1 -14.0788803 -0.096447 -14.3141813
522 1 -12.2309065 -2.2093525 -14.3251419
565 1 -12.3186693 -0.1334038 -12.2749205
165 1 -16.2845287 -0.1397686 -12.1961117
561 1 -12.2585631 -0.0091953 -16.322506
122 1 -16.5194645 -2.0216713 -14.5119286
528 1 -10.2097416 -1.9864694 -12.1963568
563 1 -10.2673378 0.0716534 -14.3213806
922 1 -8.2943468 -2.0685406 -14.4881726
965 1 -8.3029947 -0.0161285 -12.1673126
564 1 -10.1590376 1.977829 -16.4049988
928 1 -6.1485643 -1.9712544 -12.4078798
963 1 -6.2130137 0.0148716 -14.2384682
1322 1 -4.15481 -2.0534077 -14.3071327
1365 1 -4.1276436 0.0572128 -12.1641312
1361 1 -4.0785713 0.108202 -16.5558472
1328 1 -2.0609541 -2.2984409 -12.2931337
1363 1 -2.124588 0.0117722 -14.3292818
1722 1 -0.1349964 -2.1439238 -14.2359352
1765 1 -0.067976 -0.0873108 -12.4107762
1761 1 -0.206461 -0.1852493 -16.3369465
1324 1 -2.3776159 -2.091466 -16.1537876
1728 1 1.9661618 -2.2211409 -12.1537294
1763 1 1.9520074 -0.1564503 -14.1116772
2122 1 3.9781896 -2.1491451 -14.1700821
2165 1 4.054224 0.022419 -12.2877693
2128 1 6.1123066 -2.1508579 -12.2094507
2163 1 6.0673962 -0.0538616 -14.2030449
2161 1 3.9145566 -0.1414814 -16.3648586
2124 1 6.0518951 -2.0170221 -16.1721115
2522 1 8.2143631 -2.1318493 -14.226162
2528 1 10.3636112 -1.9892836 -12.3410597
2563 1 10.2767277 -0.0363216 -14.4195166
2565 1 8.2131386 -0.0276737 -12.3483734
2524 1 10.0865192 -2.1123514 -16.3294468
2561 1 7.9244176 -0.0114384 -16.4157467
2922 1 12.3364811 -2.0779238 -14.3920641
2928 1 14.1019268 -2.1112499 -12.1188936
2963 1 14.4284611 0.0207062 -14.4072752
2965 1 12.3023396 -0.0281219 -12.4990931
2924 1 14.4571781 -2.2228546 -16.4143067
3322 1 16.4132424 -2.0882845 -14.4786921
3328 1 18.442852 -2.0098019 -12.1634789
3363 1 18.3514366 -0.0578995 -14.2321253
3365 1 16.2491799 -0.1101952 -12.3867703
3722 1 20.224247 -2.0926905 -14.2497187
3728 1 22.3613396 -2.0911388 -12.1313763
3763 1 22.4982338 -0.0440311 -14.0715218
3765 1 20.2752762 -0.1156197 -12.1560555
3761 1 20.2500267 0.0613327 -16.3863888
168 1 -14.3138962 1.9549848 -12.2092466
203 1 -14.3377133 4.0603447 -14.244812
562 1 -12.3947735 1.9416466 -14.1749649
602 1 -12.1194248 6.0080471 -14.3989449
605 1 -12.2147942 4.0747833 -12.2792158
208 1 -14.2349444 6.1460419 -12.320652
205 1 -16.3001957 4.0448437 -12.0736561
164 1 -14.1757603 2.0386486 -16.3327427
568 1 -10.151001 2.0083008 -12.4769192
603 1 -9.9917116 3.9085598 -14.2724276
608 1 -10.1746597 6.1445332 -12.2246246
962 1 -8.0550661 1.9715462 -14.3660469
1002 1 -8.1496201 6.0963154 -14.6914311
1005 1 -8.0448265 4.1122704 -12.2920361
604 1 -10.2324619 6.1115322 -16.6392803
1001 1 -8.2558804 3.9522058 -16.5167389
968 1 -6.1286173 1.9128476 -12.3384533
1003 1 -6.3544779 4.0283241 -14.648902
1008 1 -6.2046108 5.9783078 -12.3868675
1362 1 -4.1704741 2.0905762 -14.3932715
1405 1 -4.1984568 3.9709302 -12.4980202
1402 1 -4.1266632 5.9269124 -14.4304114
1368 1 -2.1387024 1.990677 -12.278245
1403 1 -2.0021334 4.0335026 -14.3213034
1408 1 -2.1587305 6.003273 -12.2824583
1762 1 0.0129147 1.927084 -14.3469734
1802 1 0.1094246 5.980795 -14.32586
1805 1 0.0900497 3.8950596 -12.1745329
1364 1 -2.027709 2.0489693 -16.4920101
1404 1 -1.9458818 5.8960724 -16.3365708
1803 1 2.0487652 3.9917336 -14.2666063
1768 1 1.9528236 1.8526402 -12.3927536
1808 1 2.0757275 6.1404133 -12.2661505
2162 1 3.9410286 1.9817448 -14.3199577
2202 1 4.0063362 5.9485704 -14.2983379
2203 1 6.0348854 4.1213265 -14.29525
2205 1 4.1146774 3.9746418 -12.1833439
2168 1 6.0312977 1.8761768 -12.2740231
1804 1 2.0891476 5.9047204 -16.3790684
2208 1 6.0987225 6.0221577 -12.2031279
1764 1 2.0050774 1.7229233 -16.2459545
2204 1 6.2463055 5.9556294 -16.320715
2568 1 10.2096653 1.9297772 -12.3743162
2562 1 8.1456699 1.9730568 -14.347271
2602 1 8.231741 5.9538728 -14.4137688
2603 1 10.2314892 4.096241 -14.3121624
2605 1 8.3038998 3.882658 -12.3820419
2601 1 8.1481171 4.0336266 -16.3697491
2564 1 10.0833359 2.12537 -16.4182491
2962 1 12.0795765 2.0342026 -14.307642
2968 1 14.3989277 1.9310818 -12.2493038
3002 1 12.0535927 6.00523 -14.2794886
3003 1 14.3466759 4.0205326 -14.3753519
3005 1 12.3722973 3.9742336 -12.2881937
3008 1 14.2586079 6.1143055 -12.3171234
3004 1 14.2067604 6.0589542 -16.165823
3362 1 16.3897858 1.8665504 -14.3975544
3368 1 18.2550049 1.9916574 -12.3836126
3402 1 16.1659241 6.1096573 -14.2968159
3403 1 18.1789703 4.0512486 -14.3643751
3405 1 16.3448753 3.9159852 -12.2714939
3408 1 18.2905769 6.1405773 -12.2750836
3364 1 18.2669983 1.9895364 -16.5005551
162 1 24.5222588 1.9760742 -14.1542912
202 1 24.3876038 6.0331326 -14.3426533
3762 1 20.4020958 2.0743408 -14.3508196
3768 1 22.3285446 1.8823776 -12.2543621
3802 1 20.2260819 6.0405979 -14.3148947
3803 1 22.3584023 4.0151062 -14.4173832
3805 1 20.2453728 4.0474529 -12.2620297
3808 1 22.2138786 5.9595852 -12.486619
201 1 24.5361252 4.091589 -16.2502499
243 1 -14.2568817 8.2797108 -14.4430895
248 1 -14.3329821 10.0797062 -12.3587179
642 1 -12.225318 10.4385453 -14.3748865
645 1 -12.2208719 8.1855221 -12.2397585
641 1 -12.0545654 8.2068577 -16.3805142
241 1 -16.2833309 8.1944161 -16.2614594
643 1 -10.2090073 8.0515232 -14.3387337
648 1 -10.2702751 10.0770149 -12.486929
1042 1 -8.1699743 9.9809494 -14.2841053
1045 1 -8.142726 8.0437717 -12.269577
1041 1 -8.1266947 8.2376137 -16.5182801
644 1 -10.0504513 10.131794 -16.3944302
1043 1 -6.0656357 8.1291084 -14.4606095
1048 1 -6.1460342 10.1088314 -12.1833439
1442 1 -4.0870562 10.1720581 -14.2437468
1445 1 -4.2290497 7.9309044 -12.3191872
1044 1 -6.2178269 10.1210671 -16.4333802
1443 1 -2.104723 7.8790588 -14.2795944
1448 1 -1.8728248 10.1032028 -12.2868071
1842 1 -0.0609589 10.2615948 -14.3896694
1845 1 0.1195831 8.1000252 -12.1817131
1444 1 -2.1078234 10.2146835 -16.2477646
1843 1 2.0003452 8.1202583 -14.2704086
1848 1 1.9482956 10.2966747 -12.4412756
2242 1 3.9263458 10.0907192 -14.4216414
2245 1 3.9802724 8.341671 -12.3122978
2241 1 3.9695016 8.1290283 -16.2240982
2243 1 5.9263822 8.1025944 -14.282486
2248 1 6.1474285 10.169569 -12.3171921
2244 1 5.9714546 10.2418499 -16.3959847
2608 1 10.2578831 6.1238518 -12.2538719
2642 1 8.007225 10.2337723 -14.4868546
2643 1 10.1468468 8.1319656 -14.4416495
2645 1 8.0872994 8.1641903 -12.4228421
2648 1 10.0914135 10.1270638 -12.3987055
2644 1 10.0364246 10.1327343 -16.4944878
3042 1 12.3129864 10.2195377 -14.2350092
3043 1 14.3227291 8.4050617 -14.2291279
3045 1 12.3377056 8.3497887 -12.2950096
3048 1 14.2397213 10.2581673 -12.2565231
3044 1 14.1078415 10.3267384 -16.4365044
3041 1 12.1966496 8.1746712 -16.1524067
3442 1 16.4072456 10.2081986 -14.4365263
3443 1 18.3865585 7.9561958 -14.327858
3445 1 16.3268051 8.3847885 -12.2886543
3448 1 18.3976555 10.1909828 -12.4312573
3444 1 18.405201 10.2276135 -16.3553391
245 1 24.6311684 8.0438137 -12.385726
242 1 24.5842591 10.213541 -14.440548
3842 1 20.5511437 10.281826 -14.1963806
3843 1 22.4466744 8.3106308 -14.3381214
3845 1 20.4802094 8.1221333 -12.2199345
3848 1 22.6518135 10.1974297 -12.3140278
3841 1 20.3013001 8.2190952 -16.378727
3844 1 22.5282974 10.2642861 -16.3040238
283 1 -14.3552294 12.3487206 -14.3707752
288 1 -14.4099102 14.2338467 -12.196928
682 1 -12.256238 14.1656418 -14.3073769
685 1 -12.3205986 12.3395424 -12.1633568
284 1 -14.2522679 14.421608 -16.3002396
681 1 -12.2304993 12.2123947 -16.4512272
281 1 -16.4070873 12.2761936 -16.2797413
683 1 -10.3224878 12.2489834 -14.5445414
688 1 -10.2354393 14.1483059 -12.3168621
1082 1 -8.2447043 14.2307472 -14.5663157
1085 1 -8.2574721 12.1857987 -12.28407
1083 1 -6.2632275 11.970707 -14.2918568
1088 1 -6.0732632 14.1515274 -12.4214916
1482 1 -4.0485077 14.0656624 -14.3400183
1485 1 -4.0944796 12.2537975 -12.2728405
1084 1 -6.2277804 14.3922806 -16.1710358
1483 1 -2.0840836 12.1815968 -14.2659454
1488 1 -1.9780254 14.3296642 -12.3291531
1882 1 0.0278435 14.3143273 -14.4901181
1885 1 0.0197258 12.4012585 -12.3532763
1881 1 0.0543575 12.080965 -16.469141
1888 1 2.1706486 14.2107163 -12.4501677
1883 1 1.8273487 12.4846344 -14.524211
2282 1 4.175417 14.3716374 -14.492549
2285 1 4.0164928 12.214922 -12.5575505
2288 1 6.0452461 14.168375 -12.4049673
2283 1 5.9373132 12.164711 -14.4925204
2284 1 6.0292568 14.0553837 -16.4366474
2682 1 8.0328007 14.0902195 -14.2077932
2683 1 10.2014675 12.1937943 -14.343792
2685 1 8.2571945 12.0614262 -12.283144
2688 1 10.1546784 13.9690286 -12.2653351
2684 1 10.1964111 14.2346611 -16.1969032
2681 1 8.1533394 12.2307511 -16.4441509
3082 1 12.1848602 14.1756783 -14.2014427
3083 1 14.2764721 12.058815 -14.3920717
3085 1 12.157856 12.1439877 -12.172616
3088 1 14.2409439 14.344553 -12.1033936
3081 1 12.1726227 12.2607327 -16.2507229
3084 1 14.1654797 14.3186112 -16.2683811
3482 1 16.3156281 14.2567711 -14.3021717
3483 1 18.3045273 12.3324032 -14.4776926
3485 1 16.4127121 12.2088451 -12.3785839
3488 1 18.3264732 14.2557087 -12.1909313
3481 1 16.2918472 12.2705612 -16.4118614
282 1 24.3401222 14.3705368 -14.2653418
285 1 24.4990044 12.1710739 -12.2950592
3882 1 20.5222664 14.2287064 -14.4400511
3883 1 22.5752869 12.0958138 -14.2375507
3885 1 20.3234062 12.3418656 -12.3129254
3888 1 22.4334564 14.1786957 -12.3071003
3881 1 20.3173714 12.3699303 -16.4637776
3884 1 22.6119614 14.3761273 -16.3831406
323 1 -14.415719 16.2292328 -14.2350865
328 1 -14.2277451 18.3073845 -12.177103
722 1 -12.3722239 18.3613892 -14.3951435
725 1 -12.4163361 16.1890106 -12.3189507
322 1 -16.2610798 18.3589401 -14.3280296
721 1 -12.2499161 16.3137131 -16.5190602
325 1 -16.3418846 16.2388992 -12.1802445
723 1 -10.2901402 16.3217468 -14.395874
728 1 -10.0746813 18.1503372 -12.3539372
1122 1 -8.1658955 18.3042832 -14.4285107
1125 1 -8.1030769 16.1188507 -12.6235104
1121 1 -8.1675272 16.2761002 -16.4780102
724 1 -10.2220602 18.209198 -16.5292607
1123 1 -6.0048971 16.2927857 -14.4413033
1128 1 -6.202775 18.237751 -12.4184485
1522 1 -4.1512203 18.4979172 -14.388299
1525 1 -4.1364136 16.3660851 -12.4184647
1521 1 -4.0452042 16.3599281 -16.3359032
1124 1 -5.9792806 18.6168251 -16.4320011
1523 1 -1.992588 16.3345566 -14.3415194
1528 1 -2.0670319 18.4408112 -12.2861261
1922 1 -0.2157211 18.321209 -14.2753849
1925 1 0.0258446 16.2609673 -12.4294625
1524 1 -2.09583 18.3279801 -16.4179897
1923 1 1.9837018 16.3921089 -14.3730555
1928 1 2.1815395 18.2848244 -12.4148922
2322 1 4.036768 18.493187 -14.3816013
2325 1 4.052309 16.4165878 -12.326685
2323 1 6.1395168 16.3542977 -14.1969757
2328 1 6.097868 18.5336914 -12.1775932
2321 1 4.1053371 16.5450783 -16.3700371
2324 1 6.1549759 18.4499474 -16.4065743
1924 1 2.1199055 18.4966965 -16.2657871
2722 1 8.0281506 18.2985306 -14.4441262
2723 1 10.1857224 16.3340263 -14.1461945
2725 1 8.0548286 16.3374939 -12.1088181
2728 1 9.8861504 18.2515412 -12.337347
2721 1 8.0497303 16.3279877 -16.3018646
2724 1 10.1022644 18.2053642 -16.316927
3122 1 12.0487404 18.3530274 -14.2341938
3123 1 14.1940746 16.2069588 -14.2850237
3125 1 12.0869198 16.2955971 -12.2136517
3128 1 14.1209335 18.1725655 -12.1830998
3124 1 13.983427 18.1988373 -16.3118343
3121 1 12.0424156 16.1687775 -16.3010368
3522 1 16.407692 18.2847023 -14.2749519
3523 1 18.3841934 16.1884804 -14.1578569
3525 1 16.0590096 16.1901932 -12.3374415
3528 1 18.3668976 18.3109703 -12.2826214
3521 1 16.1793022 16.3397331 -16.3420849
3524 1 18.5106888 18.3884773 -16.3397789
3922 1 20.4322815 18.3254929 -14.1308003
3923 1 22.4544258 16.3588677 -14.2637997
3925 1 20.4631996 16.0535431 -12.0034952
3928 1 22.4339066 18.3618775 -12.0923386
363 1 -14.3144264 20.4585915 -14.3266468
368 1 -14.300251 22.4254227 -12.3456078
762 1 -12.0019455 22.2936249 -14.2800427
765 1 -12.1469173 20.1552696 -12.1674767
361 1 -16.4006367 20.1688919 -16.4639035
365 1 -16.2590771 20.2852287 -12.3037605
362 1 -16.2303906 22.4032326 -14.2765188
1 1 -16.2222252 24.4193382 -16.3503742
761 1 -12.4721947 20.219841 -16.3141384
364 1 -14.2689114 22.2744141 -16.4427071
763 1 -10.2411099 20.3265915 -14.2417202
768 1 -10.170826 22.4715157 -11.9841194
1162 1 -8.105402 22.4147759 -14.2238445
1165 1 -8.2274084 20.3169251 -12.3495646
764 1 -10.2856941 22.4290924 -16.2813168
1161 1 -8.3832722 20.2705422 -16.4029541
1205 1 -4.121769 24.5263329 -12.0776138
1163 1 -6.0471973 20.6276322 -14.4449864
1168 1 -6.0568647 22.4507561 -12.3016224
1562 1 -4.1639881 22.6575241 -14.3844566
1565 1 -4.2523413 20.360363 -12.3220501
1561 1 -4.1551771 20.5109253 -16.3828621
1605 1 -0.0534534 24.4525032 -12.1458569
1563 1 -2.1452694 20.6536141 -14.2562494
1568 1 -2.0693169 22.3588905 -12.2654572
1962 1 -0.0556965 22.4688263 -14.2246447
1965 1 0.1757107 20.2101746 -12.4051752
1601 1 -0.2310181 24.5871125 -16.2613468
1564 1 -2.0990534 22.597847 -16.158968
2003 1 5.9424114 24.6405487 -14.3475647
1968 1 2.0111561 22.4505501 -12.2243395
1963 1 2.0914326 20.5716248 -14.3304901
2362 1 4.0027466 22.5418396 -14.4188919
2363 1 6.1935635 20.5348702 -14.1196728
2365 1 4.0294647 20.4505539 -12.2303763
2368 1 5.879715 22.4300728 -12.309618
2361 1 3.9648514 20.5030937 -16.45331
2762 1 8.1136894 22.4520188 -14.3225393
2763 1 10.257637 20.36726 -14.3188315
2765 1 8.0090599 20.4323616 -12.2902298
2768 1 10.3547211 22.412941 -12.2636624
2761 1 8.0855427 20.3038712 -16.5039559
2764 1 10.2396889 22.5477143 -16.2800331
2805 1 12.2122307 24.3583985 -12.4453507
2803 1 14.3370896 24.2508316 -14.3673897
3162 1 12.2354832 22.2381935 -14.4714604
3163 1 14.1203251 20.1055412 -14.2775746
3165 1 12.3069496 20.3129273 -12.1837111
3168 1 14.2865067 22.4594002 -12.2570534
2801 1 12.3747425 24.4155464 -16.3368912
3161 1 12.1878376 20.2491684 -16.2644863
3164 1 14.4857731 22.0425148 -16.3511467
3205 1 16.2900925 24.2098351 -12.1729012
3203 1 18.3798676 24.3498726 -14.3338261
3562 1 16.3537674 22.1916084 -14.2158089
3563 1 18.5057526 20.2728691 -14.2798023
3565 1 16.3194618 20.2950173 -12.2054119
3568 1 18.4447289 22.3058624 -12.3018799
3561 1 16.2929077 20.1934052 -16.3938694
5 1 24.6515618 24.4643326 -12.1294174
3605 1 20.3501663 24.4916611 -12.3046169
3962 1 20.5226746 22.4229737 -14.582983
3963 1 22.3870392 20.3115387 -14.3150664
3965 1 20.4476166 20.2900429 -12.2198525
3968 1 22.4924431 22.5723114 -12.3577023
12 1 -14.3989449 -14.3545647 -8.197916
47 1 -14.4788351 -12.2703924 -10.2362957
406 1 -12.3851013 -14.2249136 -10.2529793
449 1 -12.4734431 -12.3789253 -8.1545963
7 1 -14.247797 -16.2514572 -10.153368
412 1 -10.3961563 -14.3294659 -8.0924711
447 1 -10.4625244 -12.2075749 -10.0623627
806 1 -8.2752562 -14.3779869 -10.2596283
849 1 -8.296957 -12.4186888 -8.1578598
407 1 -10.3605871 -16.4710179 -10.2095776
812 1 -6.1840115 -14.3027191 -8.1914301
847 1 -6.0967178 -12.3523102 -10.1783724
1206 1 -4.2455702 -14.1964006 -10.2513886
1249 1 -4.0672722 -12.3002758 -8.2533522
807 1 -6.1216002 -16.3512974 -10.1538162
1212 1 -1.974681 -14.4035912 -8.3825779
1247 1 -2.1424141 -12.4179754 -10.0615873
1606 1 0.029026 -14.2943812 -10.1723766
1649 1 0.0741005 -12.3022022 -8.3293047
1609 1 0.1008186 -16.4868145 -8.2404614
1207 1 -2.1208773 -16.5684738 -10.3086596
1647 1 1.9250852 -12.1717587 -10.2961779
1612 1 2.0144997 -14.3715334 -8.3720951
2006 1 4.0552464 -14.1295357 -10.2850008
2049 1 4.162281 -12.0299282 -8.2894926
2012 1 6.133152 -14.2063131 -8.4303856
2047 1 6.1739025 -12.18571 -10.3774338
2009 1 4.0415821 -16.3455773 -8.2081957
2406 1 8.2818718 -14.2743244 -10.3017664
2412 1 10.1080971 -14.3307705 -8.0719528
2447 1 10.1777287 -12.2282143 -10.311882
2449 1 8.2034702 -12.3301802 -8.151577
2409 1 8.0565414 -16.1961651 -8.2709332
2806 1 12.1809044 -14.3474503 -10.2783108
2812 1 14.3227291 -14.2836409 -8.3296719
2847 1 14.3288899 -12.4645996 -10.3251801
2849 1 12.2471886 -12.3846407 -8.0840683
2809 1 12.2444973 -16.3680306 -8.2610207
2807 1 14.1851006 -16.4106426 -10.1286068
3206 1 16.348465 -14.3478794 -10.3235893
3212 1 18.4258003 -14.5213518 -8.2582874
3247 1 18.2603912 -12.2541981 -10.1428022
3249 1 16.315464 -12.3041763 -8.2954893
3209 1 16.2894402 -16.3795662 -8.2826805
49 1 24.4516869 -12.2232781 -7.9525976
6 1 24.3872376 -14.2370453 -10.1516542
3606 1 20.4029122 -14.3783741 -10.1578541
3612 1 22.4109001 -14.437954 -8.0775414
3647 1 22.4529953 -12.1489573 -10.1424351
3649 1 20.358696 -12.2882557 -8.2446633
9 1 24.5548859 -16.4874935 -8.1716471
3609 1 20.3660355 -16.4840126 -8.0306721
52 1 -14.5253163 -10.1788216 -8.3060942
87 1 -14.6219139 -8.2674656 -10.2842255
446 1 -12.4951401 -10.2747212 -10.2773323
489 1 -12.5070877 -8.2313242 -8.1491709
46 1 -16.458807 -10.2987471 -10.3647881
452 1 -10.4688874 -10.1946487 -8.2996493
487 1 -10.162138 -8.2225952 -10.2531023
846 1 -8.2717486 -10.377964 -10.3414974
889 1 -8.3485584 -8.2918587 -8.0544539
852 1 -6.3145428 -10.3231411 -8.3105002
887 1 -6.3015309 -8.228673 -10.0709286
1246 1 -4.2084503 -10.3060084 -10.0919762
1289 1 -4.1501598 -8.1848221 -8.0528631
1252 1 -2.1652165 -10.1000938 -8.1720953
1287 1 -2.3948717 -8.1845369 -10.3432913
1646 1 -0.1541672 -10.362463 -10.2785149
1689 1 -0.0659771 -8.3654862 -7.9095632
1652 1 1.9759522 -10.2364178 -8.3113976
1687 1 1.8638172 -8.279254 -10.1403551
2046 1 4.052063 -10.0742321 -10.139988
2089 1 4.2871037 -8.1792746 -8.0467033
2052 1 6.1920548 -10.2152481 -8.1598578
2087 1 6.0904446 -8.2844753 -10.3149824
2446 1 8.1366959 -10.3610363 -10.166502
2452 1 10.2630634 -10.4073334 -7.8914928
2487 1 10.2228832 -8.012887 -10.3419457
2489 1 8.2979431 -8.2369127 -8.1925726
2846 1 12.1919975 -10.4084759 -10.3604241
2852 1 14.1443501 -10.3300753 -8.0908804
2887 1 14.3393707 -8.3483544 -10.1897535
2889 1 12.0977707 -8.2658339 -8.3268986
3246 1 16.3719597 -10.2330732 -10.1284847
3252 1 18.5137062 -10.10042 -8.0760727
3287 1 18.2260018 -8.178133 -10.1770268
3289 1 16.2439575 -8.3155584 -7.9641418
89 1 24.1898079 -8.2596331 -8.2911244
3646 1 20.3783112 -10.3511639 -10.3496552
3652 1 22.2133064 -10.2279749 -8.3735638
3687 1 22.4256668 -8.1861277 -10.3853073
3689 1 20.3079491 -8.0945511 -8.221983
92 1 -14.4285145 -6.1250277 -8.1600218
127 1 -14.2411766 -4.2072268 -10.1936283
486 1 -12.3421898 -6.1517868 -10.2053356
529 1 -12.0991097 -4.2683325 -8.1498642
492 1 -10.3745785 -6.3341646 -8.067874
527 1 -10.1104145 -4.1551361 -10.2017059
886 1 -8.3240423 -6.2321863 -10.1430874
929 1 -8.0950403 -4.3962526 -8.0423794
892 1 -6.123682 -6.1642685 -8.0893297
927 1 -6.1909046 -4.1897678 -10.4031735
1286 1 -4.2551966 -6.2131367 -10.065299
1329 1 -4.0671902 -4.073432 -8.2236147
1292 1 -2.0279131 -6.2019186 -8.1123772
1327 1 -2.1165524 -4.1938067 -10.2419253
1686 1 -0.0181274 -6.1095676 -10.3087406
1729 1 0.0721436 -4.2534428 -8.2163544
1727 1 2.0353432 -4.2370443 -10.012352
1692 1 1.8889446 -6.3381615 -8.0620403
2086 1 4.0404396 -6.271183 -10.0710917
2129 1 4.0010738 -4.214325 -8.04809
2092 1 6.1152039 -6.0956984 -8.3565941
2127 1 6.1114521 -4.1801014 -10.2497978
2486 1 8.3444862 -6.2759142 -10.2831249
2492 1 10.1550465 -6.2596388 -8.0329571
2527 1 10.3381996 -4.1012917 -10.2041531
2529 1 8.0773449 -4.1801415 -8.347498
2886 1 12.3288117 -6.2022858 -10.2487774
2892 1 14.2783489 -6.1890287 -8.0914516
2927 1 14.309269 -4.106431 -10.0434761
2929 1 12.1633225 -4.2810993 -8.2601233
3286 1 16.1536865 -6.1975536 -10.0422516
3292 1 18.422535 -6.1944542 -8.1816816
3327 1 18.3223114 -4.2526684 -10.2536316
3329 1 16.2698593 -4.1265421 -8.037158
129 1 24.5801773 -4.029254 -8.0593481
86 1 24.6238251 -6.0181541 -10.3305235
3686 1 20.2949791 -6.2726107 -10.3007469
3692 1 22.3648911 -6.2742415 -8.2146406
3727 1 22.4309693 -4.203352 -10.1981964
3729 1 20.4799652 -4.2176285 -8.0500069
132 1 -14.1999455 -2.0808601 -8.2786017
167 1 -14.3225718 -0.0046673 -10.3071919
526 1 -12.2978983 -2.1781073 -10.3028669
569 1 -12.0441647 -0.2733593 -8.2417669
169 1 -16.2741776 0.0208683 -8.0829668
532 1 -10.0115356 -2.2783709 -8.1722174
567 1 -10.217125 0.0784664 -10.3144512
926 1 -8.1106234 -2.2030706 -10.2553043
969 1 -8.109685 -0.0319977 -8.0958977
932 1 -5.9858074 -1.9589358 -8.1549225
967 1 -6.354723 -0.0590019 -10.2115765
1326 1 -4.0952959 -2.1393948 -10.2844696
1369 1 -4.0336599 -0.1752148 -8.2424603
1332 1 -2.3150435 -2.1851225 -8.1792746
1367 1 -2.0370913 -0.1234093 -10.3240376
1726 1 0.0088768 -2.1907511 -10.1075182
1769 1 -0.2731953 -0.2140904 -8.2267561
1732 1 2.0379944 -1.994424 -8.1392584
1767 1 2.0597382 -0.0880852 -10.1041317
2126 1 4.0893059 -2.0041323 -10.2576714
2169 1 4.0944881 -0.0985279 -8.1033211
2132 1 6.119976 -2.1455545 -8.0782347
2167 1 6.1894035 -0.2116833 -10.241518
2526 1 8.1726341 -2.0264444 -10.1359901
2532 1 10.1128273 -1.836072 -8.2521277
2567 1 10.0672646 -0.0334244 -10.4385796
2569 1 8.117197 0.1827679 -8.22643
2926 1 12.1639767 -2.0245276 -10.131381
2932 1 14.3477364 -1.7891617 -8.1613264
2967 1 14.2825508 0.0369816 -10.2495537
2969 1 12.3141689 0.1099148 -8.2417669
3326 1 16.4530945 -2.0038052 -10.0242224
3332 1 18.5059929 -2.0465546 -8.2778263
3367 1 18.435669 -0.1417675 -10.1483908
3369 1 16.3730621 0.1724072 -8.2014647
126 1 24.5083847 -2.0927305 -10.1930981
3726 1 20.5663605 -2.1119032 -10.1977892
3732 1 22.4118805 -1.959057 -8.288106
3767 1 22.4318695 -0.0140896 -10.2009716
3769 1 20.4246941 -0.0214329 -8.2205553
172 1 -14.0579186 1.9452362 -8.4102345
207 1 -14.013978 4.0180035 -10.1346855
566 1 -12.1190567 1.982031 -10.3386002
606 1 -12.2623568 6.2069016 -10.1580582
609 1 -11.9403506 4.1654644 -8.3571653
212 1 -14.3185616 6.0970917 -8.2398911
572 1 -10.1880398 1.880909 -8.1144171
607 1 -10.1103735 4.005846 -10.318327
966 1 -8.1767454 2.1070557 -10.0703983
1006 1 -8.2373209 6.1843453 -10.1291781
1009 1 -8.248457 4.1019115 -8.2514343
612 1 -10.2878151 6.2966423 -8.2491503
1366 1 -4.1369438 1.9091778 -10.168787
972 1 -6.1595774 1.8965722 -8.2496805
1007 1 -6.0459738 4.1266308 -10.1235085
1012 1 -6.1162577 6.0785732 -8.2121935
1409 1 -4.1271534 3.840601 -8.0942249
1406 1 -4.2314968 6.0855484 -10.311882
1766 1 -0.1337719 1.9253712 -10.1302795
1372 1 -2.0509596 1.9207612 -8.1109905
1407 1 -2.1399269 4.0307312 -10.2147179
1412 1 -2.2914248 5.978758 -8.3877182
1806 1 -0.0057678 6.0011921 -10.2327471
1809 1 5.9509278e-04 4.0514927 -8.1308556
2172 1 6.2244434 1.9593086 -8.1200457
1772 1 1.8584728 1.8929424 -8.0882282
1807 1 2.1406269 3.8968526 -10.2279339
1812 1 2.0017738 6.0899944 -8.2795811
2166 1 4.2449665 1.8857232 -10.1391716
2206 1 3.8839626 6.080286 -10.353775
2209 1 4.1375618 4.1805553 -8.164834
2212 1 6.1738205 6.0572815 -8.2711363
2207 1 6.1257706 4.104847 -10.1638508
2572 1 10.1495419 2.0339165 -8.0298967
2566 1 8.112711 1.9523336 -10.186245
2606 1 8.3484039 6.069355 -10.3043356
2607 1 10.2519245 3.975214 -10.1961575
2609 1 8.1692467 3.8815156 -8.2086439
2612 1 10.1312256 5.9464092 -8.1761751
2972 1 14.401947 1.9179878 -8.1423588
2966 1 12.0989132 1.8125019 -10.2839813
3006 1 12.1585503 6.0486736 -10.199503
3007 1 14.2781448 3.921898 -10.3349295
3009 1 12.208477 3.9192886 -8.1848221
3012 1 14.2441254 6.1739025 -8.1879225
3366 1 16.4593354 1.999693 -10.3211823
3372 1 18.4049149 1.9899426 -8.4266329
3406 1 16.3187256 5.9404126 -10.2345009
3407 1 18.3947563 4.1877766 -10.1365204
3409 1 16.4902954 3.9966698 -8.1200457
3412 1 18.4205361 6.1809998 -8.0536785
209 1 24.5295983 4.1450672 -8.2848835
166 1 24.3576241 2.1735859 -10.1580181
206 1 24.2932968 5.9708862 -10.234623
3766 1 20.3697472 1.8993054 -10.1866932
3772 1 22.4073105 1.8837644 -8.0949183
3806 1 20.4404373 6.1876507 -10.1662979