LAMMPS (17 Nov 2016)
Lattice spacing in x,y,z = 4.05 4.05 4.05
Created orthogonal box = (0 -64.0361 0) to (12.8072 64.0361 4.05)
  1 by 1 by 1 MPI processor grid
Lattice spacing in x,y,z = 5.12289 5.12289 4.05
Created 200 atoms
Lattice spacing in x,y,z = 5.12289 5.12289 4.05
Created 200 atoms
200 atoms in group upper
200 atoms in group lower
Reading potential file AlCu.eam.alloy with DATE: 2008-10-01
Displacing atoms ...
System init for delete_atoms ...
Neighbor list info ...
  2 neighbor list requests
  update every 1 steps, delay 10 steps, check yes
  max neighbors/atom: 2000, page size: 100000
  master list distance cutoff = 8.6825
  ghost atom cutoff = 8.6825
  binsize = 4.34125, bins = 3 30 1
Deleted 2 atoms, new total = 398
WARNING: Resetting reneighboring criteria during minimization (../min.cpp:168)
Neighbor list info ...
  2 neighbor list requests
  update every 1 steps, delay 0 steps, check yes
  max neighbors/atom: 2000, page size: 100000
  master list distance cutoff = 8.6825
  ghost atom cutoff = 8.6825
  binsize = 4.34125, bins = 3 30 1
Setting up cg style minimization ...
  Unit style    : metal
Memory usage per processor = 5.67673 Mbytes
Step PotEng Lx Ly Lz Press Pxx Pyy Pzz c_eatoms 
       0   -1222.2795    12.807225    128.07225         4.05     32695.11   -240.39274    98837.807   -512.08434   -1222.2795 
      10   -1314.6937    12.807225    128.07225         4.05    5105.9305    3283.6178    7487.6607     4546.513   -1314.6937 
      20   -1314.9894    12.807225    128.07225         4.05    6008.2087    4217.2859    8649.4319    5157.9083   -1314.9894 
      30   -1315.0124    12.807225    128.07225         4.05    6085.1815    4267.0997    8795.5904    5192.8543   -1315.0124 
      40   -1315.0164    12.807225    128.07225         4.05    6168.4146    4346.8062    8891.1821    5267.2557   -1315.0164 
      50   -1315.0191    12.807225    128.07225         4.05    6183.5823    4467.3193    8786.7421    5296.6855   -1315.0191 
      60   -1315.0205    12.807225    128.07225         4.05    6148.5791    4533.5413    8633.7857    5278.4102   -1315.0205 
      70   -1315.0211    12.807225    128.07225         4.05    6179.0635    4631.3374     8602.481    5303.3723   -1315.0211 
      80   -1315.0214    12.807225    128.07225         4.05    6167.9096    4646.7128    8564.9273    5292.0887   -1315.0214 
      90   -1315.0215    12.807225    128.07225         4.05    6161.4036    4644.2428    8552.9073    5287.0606   -1315.0215 
     100   -1315.0215    12.807225    128.07225         4.05    6158.7574    4647.0376    8543.4608    5285.7736   -1315.0215 
     110   -1315.0215    12.807225    128.07225         4.05    6159.4908    4649.2263    8543.2214    5286.0247   -1315.0215 
     120   -1315.0215    12.807225    128.07225         4.05    6160.2555    4650.2136    8543.7673    5286.7855   -1315.0215 
     130   -1315.0215    12.807225    128.07225         4.05    6160.5203    4650.9881    8543.5235    5287.0493   -1315.0215 
     140   -1315.0215    12.807225    128.07225         4.05    6160.4811    4652.1649    8542.2134    5287.0649   -1315.0215 
     150   -1315.0215    12.807225    128.07225         4.05    6160.3686    4652.1708     8541.953     5286.982   -1315.0215 
     160   -1315.0215    12.807225    128.07225         4.05    6160.3509    4652.2111    8541.8773    5286.9643   -1315.0215 
     165   -1315.0215    12.807225    128.07225         4.05    6160.3509    4652.2122    8541.8704      5286.97   -1315.0215 
Loop time of 0.475658 on 1 procs for 165 steps with 398 atoms

98.4% CPU use with 1 MPI tasks x no OpenMP threads

Minimization stats:
  Stopping criterion = energy tolerance
  Energy initial, next-to-last, final = 
        -1222.27953823      -1315.0215327      -1315.0215327
  Force two-norm initial, final = 223.897 1.16654e-05
  Force max component initial, final = 79.1998 3.35559e-06
  Final line search alpha, max atom move = 1 3.35559e-06
  Iterations, force evaluations = 165 324

MPI task timing breakdown:
Section |  min time  |  avg time  |  max time  |%varavg| %total
---------------------------------------------------------------
Pair    | 0.43876    | 0.43876    | 0.43876    |   0.0 | 92.24
Neigh   | 0          | 0          | 0          |   0.0 |  0.00
Comm    | 0.0085847  | 0.0085847  | 0.0085847  |   0.0 |  1.80
Output  | 0.020462   | 0.020462   | 0.020462   |   0.0 |  4.30
Modify  | 0          | 0          | 0          |   0.0 |  0.00
Other   |            | 0.007855   |            |       |  1.65

Nlocal:    398 ave 398 max 398 min
Histogram: 1 0 0 0 0 0 0 0 0 0
Nghost:    5396 ave 5396 max 5396 min
Histogram: 1 0 0 0 0 0 0 0 0 0
Neighs:    34742 ave 34742 max 34742 min
Histogram: 1 0 0 0 0 0 0 0 0 0
FullNghs:  69484 ave 69484 max 69484 min
Histogram: 1 0 0 0 0 0 0 0 0 0

Total # of neighbors = 69484
Ave neighs/atom = 174.583
Neighbor list builds = 0
Dangerous builds = 0
WARNING: Resetting reneighboring criteria during minimization (../min.cpp:168)
Setting up cg style minimization ...
  Unit style    : metal
Memory usage per processor = 4.39637 Mbytes
Step PotEng Lx Ly Lz Press Pxx Pyy Pzz c_eatoms 
       0   -1315.0215    12.807225    128.07225         4.05    6160.3509    4652.2122    8541.8704      5286.97   -1315.0215 
      10   -1315.1741    12.807225    129.19492         4.05     -545.734   -754.44801   -0.6760411   -882.07795   -1315.1741 
      20   -1315.1791    12.807225    129.17421         4.05   -261.58042   -521.33677    381.42511   -644.82961   -1315.1791 
      30   -1315.1797    12.807225    129.24829         4.05   -641.19457   -843.86953   -65.501249   -1014.2129   -1315.1797 
Loop time of 0.137133 on 1 procs for 30 steps with 398 atoms

99.2% CPU use with 1 MPI tasks x no OpenMP threads

Minimization stats:
  Stopping criterion = linesearch alpha is zero
  Energy initial, next-to-last, final = 
         -1315.0215327     -1315.17969567     -1315.17969567
  Force two-norm initial, final = 35.4167 0.295178
  Force max component initial, final = 35.4167 0.271584
  Final line search alpha, max atom move = 8.75684e-08 2.37822e-08
  Iterations, force evaluations = 30 89

MPI task timing breakdown:
Section |  min time  |  avg time  |  max time  |%varavg| %total
---------------------------------------------------------------
Pair    | 0.12556    | 0.12556    | 0.12556    |   0.0 | 91.56
Neigh   | 0.0012331  | 0.0012331  | 0.0012331  |   0.0 |  0.90
Comm    | 0.0023823  | 0.0023823  | 0.0023823  |   0.0 |  1.74
Output  | 5.7936e-05 | 5.7936e-05 | 5.7936e-05 |   0.0 |  0.04
Modify  | 0          | 0          | 0          |   0.0 |  0.00
Other   |            | 0.007901   |            |       |  5.76

Nlocal:    398 ave 398 max 398 min
Histogram: 1 0 0 0 0 0 0 0 0 0
Nghost:    5396 ave 5396 max 5396 min
Histogram: 1 0 0 0 0 0 0 0 0 0
Neighs:    34342 ave 34342 max 34342 min
Histogram: 1 0 0 0 0 0 0 0 0 0
FullNghs:  69484 ave 69484 max 69484 min
Histogram: 1 0 0 0 0 0 0 0 0 0

Total # of neighbors = 69484
Ave neighs/atom = 174.583
Neighbor list builds = 1
Dangerous builds = 0
GB energy is 3413.25533965751 mJ/m^2
WARNING: Resetting reneighboring criteria during minimization (../min.cpp:168)
Setting up cg style minimization ...
  Unit style    : metal
Memory usage per processor = 5.67673 Mbytes
Step PotEng Lx Ly Lz Press Pxx Pyy Pzz c_eatoms 
       0   -1315.1797    12.807225    129.24829         4.05   -641.19457   -843.86953   -65.501249   -1014.2129   -1315.1797 
      10    -1315.181    12.807225    129.23905         4.05    -580.5878   -795.23978   -1.0688686   -945.45474    -1315.181 
      20   -1315.1812    12.807225    129.24349         4.05   -596.09237    -813.6908   -19.966672   -954.61964   -1315.1812 
      22   -1315.1812    12.807225    129.24004         4.05   -575.53643   -797.81451     7.181375   -935.97614   -1315.1812 
Loop time of 0.113351 on 1 procs for 22 steps with 398 atoms

99.7% CPU use with 1 MPI tasks x no OpenMP threads

Minimization stats:
  Stopping criterion = linesearch alpha is zero
  Energy initial, next-to-last, final = 
        -1315.17969567     -1315.18122574     -1315.18122574
  Force two-norm initial, final = 0.297474 0.0607868
  Force max component initial, final = 0.274078 0.0300491
  Final line search alpha, max atom move = 2.70607e-06 8.13152e-08
  Iterations, force evaluations = 22 73

MPI task timing breakdown:
Section |  min time  |  avg time  |  max time  |%varavg| %total
---------------------------------------------------------------
Pair    | 0.10168    | 0.10168    | 0.10168    |   0.0 | 89.71
Neigh   | 0          | 0          | 0          |   0.0 |  0.00
Comm    | 0.0018451  | 0.0018451  | 0.0018451  |   0.0 |  1.63
Output  | 5.6744e-05 | 5.6744e-05 | 5.6744e-05 |   0.0 |  0.05
Modify  | 0          | 0          | 0          |   0.0 |  0.00
Other   |            | 0.009766   |            |       |  8.62

Nlocal:    398 ave 398 max 398 min
Histogram: 1 0 0 0 0 0 0 0 0 0
Nghost:    5396 ave 5396 max 5396 min
Histogram: 1 0 0 0 0 0 0 0 0 0
Neighs:    34366 ave 34366 max 34366 min
Histogram: 1 0 0 0 0 0 0 0 0 0
FullNghs:  68732 ave 68732 max 68732 min
Histogram: 1 0 0 0 0 0 0 0 0 0

Total # of neighbors = 68732
Ave neighs/atom = 172.693
Neighbor list builds = 0
Dangerous builds = 0
System init for write_restart ...
Neighbor list info ...
  2 neighbor list requests
  update every 1 steps, delay 10 steps, check yes
  max neighbors/atom: 2000, page size: 100000
  master list distance cutoff = 8.6825
  ghost atom cutoff = 8.6825
  binsize = 4.34125, bins = 3 30 1
All done
Total wall time: 0:00:00
