# LAMMPS data file written by OVITO
4000 atoms
1 atom types
-16.3566971 24.4345551 xlo xhi
-16.3566971 24.4345551 ylo yhi
-16.3566971 24.4345551 zlo zhi

Atoms # atomic

8 1 -14.3280745 -14.2361889 -12.2440004
43 1 -14.3279438 -12.0495081 -14.4569302
402 1 -12.2840252 -14.1304455 -14.1876259
445 1 -12.2745934 -12.0822639 -12.2937737
3 1 -14.2717705 -16.3442841 -14.3713627
405 1 -12.20998 -16.2677002 -12.3615818
2 1 -16.1932011 -14.222209 -14.1917257
41 1 -16.3221073 -12.5874748 -16.4177418
441 1 -12.1013947 -12.3435965 -16.3011818
401 1 -12.1600933 -16.3366909 -16.2245178
408 1 -10.2421703 -14.1332312 -12.2338848
443 1 -10.1762924 -12.1491203 -14.2314606
802 1 -8.3208208 -14.1724682 -14.3618908
845 1 -8.1467638 -12.2751246 -12.3592529
404 1 -10.146678 -14.2873774 -16.3366699
805 1 -8.2523317 -16.3056259 -12.1192207
403 1 -10.2717028 -16.2586041 -14.2202635
841 1 -8.2205143 -12.0899324 -16.2607556
808 1 -5.9881736 -14.2984066 -12.2374745
843 1 -6.1034489 -12.1741657 -14.4023228
1202 1 -4.0617647 -14.2942667 -14.2046118
1245 1 -3.901659 -12.179184 -12.4305592
804 1 -6.176384 -14.1235638 -16.306696
1208 1 -2.0129433 -14.2207689 -12.2454281
1243 1 -1.9402934 -12.2382488 -14.439312
1602 1 -0.237217 -14.3167954 -14.3469734
1645 1 -0.0526371 -12.1642952 -12.3003979
1641 1 0.0263348 -12.3677244 -16.3326721
1203 1 -2.2049065 -16.273859 -14.3169832
1204 1 -2.2136765 -14.5206175 -16.4584236
1608 1 1.7980213 -14.3684168 -12.2641516
1643 1 1.834734 -12.1514454 -14.3531122
2002 1 3.8633634 -14.26019 -14.5025673
2045 1 3.8964044 -12.3230915 -12.3730278
2008 1 5.9453488 -14.4642201 -12.4045916
2043 1 6.1819801 -12.5527945 -14.2238207
2003 1 5.8701306 -16.46488 -14.4615555
2041 1 3.9742336 -12.2396774 -16.3689404
2402 1 8.1714497 -14.4047136 -14.3347283
2408 1 10.2833367 -14.2438288 -12.1488342
2443 1 10.0522118 -12.2395954 -14.1985788
2445 1 8.1399174 -12.3569603 -12.1768589
2441 1 8.0745697 -12.3556833 -16.2815209
2403 1 10.1945744 -16.3363037 -14.1159725
2404 1 10.2735443 -14.5613594 -16.2272091
2802 1 12.2711334 -14.4085684 -14.1994515
2808 1 14.5723725 -14.351183 -12.3033066
2843 1 14.3786144 -12.3609162 -14.2946377
2845 1 12.373806 -12.2657423 -12.3265295
2805 1 12.3865318 -16.4550171 -12.3609047
2804 1 14.1731892 -14.3498449 -16.2690716
2841 1 12.1120071 -12.236454 -16.1501389
3202 1 16.359314 -14.2981987 -14.2792845
3208 1 18.4332619 -14.5048685 -12.4413691
3243 1 18.3984299 -12.0971108 -14.3922596
3245 1 16.3774681 -12.2581558 -12.3476839
3205 1 16.4104271 -16.4091263 -12.236454
3204 1 18.249012 -14.2201405 -16.4695492
3241 1 16.2909889 -12.1689854 -16.348959
5 1 24.3311501 -16.3998184 -12.3740473
45 1 24.3517914 -12.0398407 -12.2909794
3602 1 20.4889794 -14.1104126 -14.4626246
3608 1 22.3013382 -14.4028454 -12.1786537
3643 1 22.5621529 -12.2464075 -14.4094944
3645 1 20.4715615 -12.0200157 -12.4006634
3603 1 22.3405762 -16.3463974 -14.2394104
48 1 -14.1812468 -10.2181034 -12.3220635
83 1 -14.1858234 -8.0197401 -14.417738
442 1 -12.2991505 -10.1846542 -14.3181868
485 1 -12.2377186 -8.0110922 -12.1678848
42 1 -16.2856236 -10.1091909 -14.4408255
481 1 -12.1864443 -8.0913696 -16.3168087
44 1 -14.4117785 -10.1372547 -16.3784104
448 1 -10.3266087 -9.8543682 -12.2529755
483 1 -10.1434956 -8.1108265 -14.3372288
842 1 -8.0815392 -10.0360928 -14.2316933
885 1 -8.147295 -8.0488653 -12.3120766
881 1 -8.2928372 -7.9963666 -16.4416561
444 1 -10.2441282 -9.9468002 -16.4153557
848 1 -5.9555398 -10.1721726 -12.0962143
883 1 -6.1114435 -8.0183535 -14.1997128
1242 1 -4.3739004 -10.0631371 -14.4919253
1285 1 -4.2089806 -8.0235748 -12.238616
844 1 -6.2977781 -10.3230591 -16.3758869
1281 1 -3.9112054 -8.1062174 -16.5297947
1248 1 -2.0300341 -10.1320744 -12.3515225
1283 1 -1.9254046 -8.0861073 -14.4479561
1642 1 -0.0693207 -10.1191845 -14.0874634
1685 1 -0.037056 -8.0295715 -12.1841192
1681 1 -0.1551857 -8.2172508 -16.3943749
1648 1 2.0825405 -10.0943432 -12.1223202
1683 1 2.1767674 -8.2746449 -14.1929493
2042 1 4.3466187 -10.4065991 -14.3292008
2085 1 4.016983 -7.9656106 -12.3565722
2048 1 6.0812244 -10.1689091 -12.1897888
2083 1 6.1379662 -8.2467032 -14.3925371
2044 1 6.0730648 -10.3918743 -16.5027886
2442 1 7.9250298 -10.2961369 -14.2022381
2448 1 10.1537018 -10.2975235 -12.417347
2483 1 9.9920464 -8.2219429 -14.1748867
2485 1 8.0234585 -8.1858425 -12.3445225
2481 1 8.0567055 -8.3567581 -16.2585793
2842 1 12.2639141 -10.278841 -14.3666182
2848 1 14.29385 -10.0779038 -12.3609285
2883 1 14.1608296 -8.3382378 -14.3987579
2885 1 12.173357 -8.1037293 -12.3254528
2844 1 14.1222019 -10.1359081 -16.3934879
2881 1 12.0223484 -8.1833944 -16.3236694
3242 1 16.2559509 -10.2123518 -14.3097143
3248 1 18.4243737 -10.0346651 -12.4040365
3283 1 18.2717323 -8.1973047 -14.5255165
3285 1 16.297966 -8.2107248 -12.4126644
3281 1 16.1600075 -8.1051159 -16.3917294
85 1 24.4594383 -7.9964486 -12.4108448
3642 1 20.4044609 -10.1680927 -14.3805161
3648 1 22.4512444 -10.1390896 -12.4964047
3683 1 22.2687035 -8.0889225 -14.3437958
3685 1 20.3911629 -8.1926956 -12.2612553
3644 1 22.4973374 -10.0799027 -16.3416176
88 1 -14.2991696 -6.0145645 -12.3693771
123 1 -14.230608 -4.1238489 -14.3469696
482 1 -12.2943611 -6.0425062 -14.5769625
525 1 -12.2723913 -4.1022301 -12.3648567
521 1 -12.4187832 -3.8999052 -16.3782082
82 1 -16.1951408 -6.0276184 -14.474001
125 1 -16.2153626 -4.0949688 -12.5115586
121 1 -16.3895359 -4.2702894 -16.450203
84 1 -14.3276014 -5.9769546 -16.4851399
488 1 -10.1627903 -6.083787 -12.3900337
523 1 -10.2668486 -4.0811405 -14.4247666
882 1 -8.1173134 -6.1293106 -14.4078541
925 1 -8.1915941 -4.2511587 -12.5028248
921 1 -7.9854756 -4.223053 -16.4136524
484 1 -10.0750895 -6.0066509 -16.4528504
888 1 -6.0563345 -5.998126 -12.1529951
923 1 -6.0762816 -3.958686 -14.3400431
1282 1 -3.9750424 -6.1683884 -14.413475
1325 1 -3.9970294 -4.0887289 -12.3085613
1288 1 -2.0005016 -6.1602707 -12.2067175
1323 1 -2.0273018 -4.0687408 -14.285697
1682 1 0.2522774 -6.1715298 -14.1696491
1725 1 0.1194191 -4.0035563 -12.3930721
1284 1 -2.032074 -5.9433422 -16.4132939
1688 1 2.105463 -5.9567634 -12.0964184
1723 1 2.0122967 -4.0900745 -14.1240616
2082 1 4.0513287 -6.0941486 -14.2378407
2088 1 6.1543617 -5.9417114 -12.3917999
2125 1 4.1303024 -3.8563814 -12.2953406
2121 1 3.9879398 -4.0399008 -16.2865925
2123 1 6.2378616 -4.106431 -14.5169583
2084 1 5.8813496 -6.1882534 -16.3142643
2482 1 8.1317616 -6.0965958 -14.2797737
2488 1 10.0668964 -6.0982285 -12.2940712
2523 1 10.1094818 -4.0661707 -14.2025032
2525 1 8.2096291 -3.8959484 -12.1240339
2521 1 8.231617 -4.0902786 -16.2809105
2484 1 9.9539052 -6.1706724 -16.3087673
2882 1 12.0782738 -6.0449133 -14.4536505
2888 1 14.1792259 -6.2224779 -12.3973274
2923 1 14.157444 -3.9224634 -14.3545609
2925 1 12.2234078 -4.1722689 -12.3999329
2921 1 12.177721 -3.908349 -16.3172417
2884 1 14.1268921 -6.0785255 -16.3743324
3282 1 16.28442 -6.0614328 -14.253088
3288 1 18.352375 -5.9837676 -12.3228254
3323 1 18.3838234 -4.0519333 -14.5458222
3325 1 16.2598686 -4.0468769 -12.4306488
3321 1 16.2922554 -4.1538715 -16.2771664
3284 1 18.2982865 -6.0603313 -16.4937439
3682 1 20.2044602 -6.1173592 -14.1656933
3688 1 22.4185295 -6.2101183 -12.3846407
3723 1 22.3319702 -4.278326 -14.3160696
3725 1 20.3617935 -4.1010885 -12.4016342
3684 1 22.4020081 -6.0656357 -16.5039978
128 1 -14.4765339 -1.847126 -12.1583805
163 1 -14.4394799 0.0522785 -14.3571472
522 1 -12.1438179 -1.983655 -14.3320847
565 1 -12.3137865 -0.0075645 -12.1830587
165 1 -16.352005 0.1516857 -12.4286099
124 1 -14.4689713 -2.1238537 -16.5250492
561 1 -12.4069986 -0.1458454 -16.2813397
528 1 -10.2579565 -2.1750059 -12.3064728
563 1 -10.1917934 -0.1495171 -14.2396965
922 1 -8.1347303 -2.0002975 -14.2826452
965 1 -8.1100111 -0.2489243 -12.1653137
961 1 -7.9626732 -0.1197796 -16.4325772
928 1 -6.2457285 -2.2693157 -12.3457298
963 1 -6.1053667 -0.1557159 -14.2606793
1322 1 -3.9670478 -2.0953817 -14.205513
1365 1 -4.1324968 0.0473423 -12.1608276
924 1 -6.1299219 -2.148736 -16.4329548
1328 1 -1.9362966 -2.1344194 -12.1529141
1363 1 -1.8613626 0.057539 -14.2382889
1722 1 0.0340023 -2.0704584 -14.2314968
1765 1 -0.0536175 -0.1419296 -12.0552597
1761 1 0.0982094 -0.131731 -16.3428116
1728 1 1.995083 -2.0017252 -12.2071247
1763 1 1.8275128 0.0061836 -14.3864718
2122 1 3.9341374 -1.9387436 -14.2400875
2165 1 4.1173306 0.2103443 -12.2468147
2128 1 5.9990312 -1.9447404 -12.355238
2163 1 5.9586068 -0.0011997 -14.231493
2522 1 8.176508 -2.1189995 -14.2772083
2528 1 10.3066292 -2.0794735 -12.1915026
2563 1 10.1027947 0.0724297 -14.1252766
2565 1 8.1466084 -0.1065235 -12.1632748
2524 1 10.2214966 -1.9761896 -16.1877823
2922 1 12.232996 -1.94372 -14.1863289
2928 1 14.2036991 -2.1628914 -12.1711884
2963 1 14.1891384 0.0765896 -14.4644318
2965 1 12.2765598 0.1043263 -12.269495
3322 1 16.3890915 -2.0997057 -14.2344265
3328 1 18.5046883 -1.9674196 -12.2832947
3363 1 18.3700371 -0.0815582 -14.2685604
3365 1 16.3183174 -0.2040138 -12.260643
3361 1 16.1322708 0.1323509 -16.4618168
122 1 24.5361252 -2.1024799 -14.4131289
3722 1 20.4498635 -2.0515728 -14.6237583
3728 1 22.3790016 -2.2115154 -12.3354664
3763 1 22.5583611 -0.1764393 -14.4542055
3765 1 20.4472924 -0.017231 -12.4445753
168 1 -14.2742634 2.1967964 -12.3476505
203 1 -14.2875042 4.0331364 -14.2687807
562 1 -12.2852287 1.8526002 -14.4393692
602 1 -12.1972542 5.9828778 -14.3753109
605 1 -12.3173313 3.9723568 -12.2244206
208 1 -14.1388893 6.1337223 -12.3397617
204 1 -14.2220669 6.1899338 -16.4510041
162 1 -16.4840756 2.0811939 -14.5454474
202 1 -16.4721127 6.1325417 -14.2744141
205 1 -16.2891503 4.0027466 -12.3430576
601 1 -12.4494171 4.1985035 -16.378952
568 1 -10.1189404 1.9524156 -12.3697767
603 1 -10.0551014 3.7798634 -14.3646975
608 1 -10.2090473 5.9496326 -12.3022881
962 1 -8.0352411 1.8809892 -14.3066712
1002 1 -8.0825176 6.0437393 -14.2387009
1005 1 -8.151659 4.0576935 -12.2793102
604 1 -10.087122 6.0534058 -16.2639332
968 1 -6.0649414 1.9639588 -12.3046208
1003 1 -6.0382652 3.9806786 -14.3637428
1008 1 -6.1548452 5.8713112 -12.1272965
1362 1 -4.0999451 1.8907814 -14.4590721
1405 1 -4.1988239 3.9700336 -12.1833849
1402 1 -4.1274796 6.0270958 -14.1815977
1004 1 -6.1882534 5.9203454 -16.4413719
964 1 -5.923151 1.821476 -16.5201206
1401 1 -4.2023726 3.9367066 -16.4553757
1368 1 -2.2955036 1.9597168 -12.2833805
1403 1 -2.078249 3.8879604 -14.3955717
1408 1 -2.1567316 6.0242805 -12.240942
1762 1 0.0148315 2.0855179 -14.1175919
1802 1 -0.0262051 6.067152 -14.3712521
1805 1 -0.1245937 3.996872 -12.1208925
1364 1 -1.734829 2.0506001 -16.2746945
1404 1 -2.1396809 6.0799599 -16.2105847
1803 1 2.1219444 4.0898781 -14.2502689
1768 1 1.9443798 1.913786 -12.1707401
1808 1 2.017437 5.9836522 -12.2196074
2162 1 3.968361 1.9912492 -14.1411972
2202 1 3.9777012 6.0634403 -14.430624
2203 1 6.0064545 4.0798435 -14.3577709
2205 1 4.0425167 4.0079689 -12.163887
2168 1 6.1255245 2.1008549 -12.1077986
1804 1 2.0269413 6.0896282 -16.2832012
2201 1 4.0245285 3.943926 -16.3790512
2208 1 6.0279522 6.1165085 -12.3937006
1764 1 2.0432987 2.0510483 -16.3082676
2204 1 6.1183853 6.1111641 -16.3073139
2568 1 10.0183144 2.1663647 -12.361455
2562 1 7.9284974 2.030735 -14.2745896
2602 1 8.1287403 6.1367416 -14.46453
2603 1 10.2885971 4.2798424 -14.2926312
2605 1 8.2062454 4.1140251 -12.3978491
2608 1 10.2086468 6.4505902 -12.002965
2601 1 8.0063686 3.9742738 -16.3405609
2564 1 10.173893 2.0393829 -16.1960049
2962 1 12.3209801 2.1586151 -14.2934475
2968 1 14.3889351 1.8767892 -12.264967
3002 1 12.1629963 6.0738831 -14.2785626
3003 1 14.291893 4.0884895 -14.3142948
3005 1 12.2374001 4.1714172 -12.3668642
3008 1 14.1409226 6.1567688 -12.4297638
3001 1 12.3061333 4.2000542 -16.4262581
2964 1 14.1584244 2.0918808 -16.3804112
3362 1 16.1168099 1.9070148 -14.2606716
3368 1 18.1417694 1.911829 -12.3923874
3402 1 16.3294945 6.1320114 -14.3248892
3403 1 18.1478882 4.1481667 -14.2623434
3405 1 16.1405907 4.1077023 -12.374753
3408 1 18.2680588 6.0062504 -12.2859297
3401 1 16.3521347 4.1231632 -16.4679604
3762 1 20.0967712 1.931368 -14.4219351
3768 1 22.0753517 2.0909023 -12.4370413
3802 1 20.2117233 5.9046384 -14.2760449
3803 1 22.1966629 4.0588341 -14.3847904
3805 1 20.2636109 4.0088253 -12.4128037
3808 1 22.3181839 5.9999276 -12.2698212
201 1 24.4327622 4.1208382 -16.2954693
243 1 -14.2602139 8.1792011 -14.1947479
248 1 -14.3182116 9.7056084 -12.1272564
642 1 -12.2691689 10.1333466 -14.3570852
645 1 -12.0675373 8.0692673 -12.1983147
245 1 -16.5620232 7.901371 -12.2412682
641 1 -12.1084518 8.0701656 -16.3232823
244 1 -14.1694174 10.1118488 -16.3984451
643 1 -10.0244255 8.0013924 -14.1953278
648 1 -10.2583637 10.222311 -12.3463822
1042 1 -8.1238394 10.0798264 -14.2786598
1045 1 -8.0026083 8.1183395 -12.2043114
1043 1 -5.9757318 7.9460374 -14.2036533
1048 1 -6.1442814 10.2274094 -12.2882385
1442 1 -4.0853014 10.0250855 -14.1652565
1445 1 -4.2811804 8.0778332 -12.1837931
1044 1 -5.9417524 10.2426262 -16.2089691
1443 1 -1.987897 8.0108967 -14.2267695
1448 1 -2.1376009 10.2296124 -12.2720242
1842 1 -0.2135601 10.2819882 -14.1637878
1845 1 0.0355949 8.1703072 -12.0957241
1444 1 -2.1382942 10.0759125 -16.2122879
1843 1 1.7812138 8.1223774 -14.3102121
1848 1 1.8942872 10.3198033 -12.2776661
2242 1 3.8502294 10.2024059 -14.2574244
2245 1 3.9745198 8.0757141 -12.3710537
2241 1 3.9762326 8.3428135 -16.0990772
2243 1 6.0049057 8.0250092 -14.3929901
2248 1 5.9453488 10.0758305 -12.4228745
2244 1 6.1236878 10.200079 -16.3298473
1844 1 1.9261056 10.2812958 -16.3962059
2642 1 8.1475868 10.1731587 -14.1783915
2643 1 10.0852928 8.2055512 -14.3204956
2645 1 8.0549908 8.2132626 -12.366024
2648 1 10.3218022 10.2217808 -12.3302612
3042 1 12.1409264 9.9850292 -14.3918314
3043 1 14.3795529 8.1156902 -14.3655777
3045 1 12.1791096 8.2868881 -12.2054939
3048 1 14.2168369 10.1528034 -12.3745079
3442 1 16.2231522 10.2699146 -14.4161348
3443 1 18.4862099 8.2561321 -14.1657372
3445 1 16.4094086 8.0544186 -12.1951332
3448 1 18.0732803 10.2578411 -12.2318449
3444 1 18.4189873 10.2831726 -16.3239746
3441 1 16.4826279 8.2571106 -16.434063
242 1 24.3652115 10.0617981 -14.1124439
3842 1 20.3624878 10.132328 -14.123148
3843 1 22.1264649 8.0630264 -14.2046928
3845 1 20.3703613 7.9354324 -12.0214844
3848 1 22.4000893 10.0997353 -12.1640492
241 1 24.439045 8.1840954 -16.2877388
283 1 -14.2965393 12.028017 -14.2019482
288 1 -14.3468714 14.1312962 -12.4491196
682 1 -12.236536 14.1611977 -14.4160576
685 1 -12.3790398 11.9565506 -12.4636412
284 1 -14.2326145 13.9601364 -16.2250881
282 1 -16.5015316 14.1963978 -14.432415
285 1 -16.4037094 12.1877575 -12.2097359
681 1 -12.2075749 12.0552254 -16.2522926
281 1 -16.3145027 11.9743768 -16.3307018
683 1 -10.0690517 12.243927 -14.2609158
688 1 -10.4755774 14.0227509 -12.3416548
1082 1 -8.1658955 14.0622788 -14.3674183
1085 1 -8.2129278 12.1377468 -12.3221607
1081 1 -8.2390747 12.1155567 -16.415947
1083 1 -6.1727934 12.0628948 -14.3019686
1088 1 -6.0523376 14.2204247 -12.1587067
1482 1 -4.1952334 14.3625832 -14.3226776
1485 1 -4.1718617 12.2241421 -12.4412632
1483 1 -2.0934248 12.3867779 -14.382103
1488 1 -2.1780653 14.2134915 -12.3119965
1882 1 -0.0918789 14.2785931 -14.417656
1885 1 -0.1834145 12.2047672 -12.1697197
1484 1 -2.1039076 14.2578735 -16.4550209
1888 1 2.0065041 14.1556912 -12.1679659
1883 1 1.9348336 12.2479649 -14.2024622
2282 1 4.1312809 14.2000694 -14.1911869
2285 1 3.995079 12.1308136 -12.2007618
2288 1 6.223547 14.2241383 -12.3750143
2283 1 6.0249729 12.2509022 -14.3327694
2284 1 6.029501 14.254324 -16.299942
1884 1 1.9919834 14.1873856 -16.4531079
2682 1 8.2806873 14.2843456 -14.168128
2683 1 10.0751781 12.1582241 -14.2745323
2685 1 8.1859303 12.1921635 -12.3187103
2688 1 10.140852 14.0524063 -12.0060244
2684 1 10.2525387 14.0351925 -16.243124
3082 1 12.1442719 14.1964397 -14.1102209
3083 1 14.2051678 12.1272221 -14.1589336
3085 1 12.3493309 12.1595287 -12.2529335
3088 1 14.4134083 14.2188759 -12.1963978
3081 1 12.2300167 12.0216961 -16.1986771
3482 1 16.3256607 14.1251373 -14.2154789
3483 1 18.1879463 12.2748871 -14.1500454
3485 1 16.2129974 12.2735405 -12.0410643
3488 1 18.1980629 14.2312355 -12.0948677
3481 1 16.3890114 12.4041138 -16.3058834
3882 1 20.287838 14.0688858 -14.1029806
3883 1 22.3745575 12.1482315 -14.2940302
3885 1 20.3035851 12.2067661 -12.1620922
3888 1 22.4729843 14.126646 -12.3330889
323 1 -14.3502197 16.2710037 -14.2999535
328 1 -14.2315016 18.3198662 -12.0807953
722 1 -12.3584938 18.4269409 -14.3275118
725 1 -12.2752466 16.2993927 -12.3708372
322 1 -16.0683861 18.2730751 -14.3018541
324 1 -14.2480583 18.1191711 -16.3628845
721 1 -12.3222876 16.2672882 -16.3387814
723 1 -10.2412319 16.2608452 -14.2367058
728 1 -10.3151455 18.2553749 -12.2347002
1122 1 -8.0112152 18.2633286 -14.1611157
1125 1 -8.4809265 16.0981712 -12.1073914
1121 1 -8.1631622 16.2570496 -16.298975
724 1 -10.1061726 18.1857834 -16.2274189
1123 1 -6.3366518 16.0861778 -14.2941074
1128 1 -5.9675732 18.1112976 -12.0484467
1522 1 -4.2923174 18.1177025 -14.1888952
1525 1 -4.0972128 16.0333099 -12.14398
1521 1 -4.3533001 16.1968422 -16.2247563
1523 1 -2.1303396 16.1624146 -14.4242764
1528 1 -2.1919346 18.2824173 -12.3048935
1922 1 -0.0343227 18.2630005 -14.2779102
1925 1 -0.0960388 16.1250115 -12.3157368
1923 1 1.9712602 16.2785072 -14.3230782
1928 1 1.7888432 18.3325501 -12.2569313
2322 1 3.9648114 18.4080124 -14.2612305
2325 1 4.0111103 16.3679199 -12.4306736
2323 1 6.0556088 16.3232536 -14.3121948
2328 1 5.890892 18.4192734 -12.2293968
2321 1 3.9870834 16.4050827 -16.1243782
2722 1 8.1075306 18.3665314 -14.2797251
2723 1 10.341341 16.3627434 -14.2182484
2725 1 8.0503807 16.3690224 -12.3640938
2728 1 10.0343857 18.2324486 -12.2397995
2721 1 8.1936817 16.1709404 -16.3458386
3122 1 12.1871452 18.3425026 -14.3802834
3123 1 14.2988262 16.2905808 -14.4581785
3125 1 12.2970791 16.3533173 -12.302145
3128 1 14.2727203 18.3342209 -12.3283119
3522 1 16.3304329 18.2573319 -14.3166447
3523 1 18.4345284 16.046608 -14.0719261
3525 1 16.2106285 16.374897 -12.3997584
3528 1 18.328228 18.4638558 -12.472848
325 1 24.6780777 16.1527062 -12.2138968
3922 1 20.4187775 18.4390145 -14.3117046
3923 1 22.3416786 16.3371239 -14.4833098
3925 1 20.4141274 16.1421814 -12.1244822
3928 1 22.5404549 18.2304917 -12.3810349
3924 1 22.4551621 18.1722412 -16.4184246
363 1 -14.2995615 20.3338509 -14.2674341
368 1 -14.2154665 22.5633393 -12.2444897
762 1 -12.2691689 22.3039856 -14.2995491
765 1 -12.3106413 20.3602448 -12.2395954
361 1 -16.2258816 20.2674446 -16.1145496
365 1 -16.1538429 20.3392372 -12.2393503
362 1 -16.1923943 22.3479996 -14.0426903
763 1 -10.298625 20.2652397 -14.1493197
768 1 -10.1880398 22.1971932 -12.1360664
1162 1 -8.2504149 22.2988892 -14.1273079
1165 1 -7.9463158 20.2317925 -12.2273979
764 1 -10.0880604 22.3517151 -16.2148667
803 1 -6.1310644 24.6058769 -14.3756123
1201 1 -4.2137938 24.3333931 -16.4064026
1205 1 -4.1925011 24.4143639 -12.2000685
1163 1 -6.2588635 20.4061737 -14.321393
1168 1 -6.2877436 22.4388008 -12.214427
1562 1 -4.4196263 22.3722725 -14.224885
1565 1 -4.2614384 20.4117623 -12.2804108
1605 1 -0.1292019 24.2787743 -12.4061127
1563 1 -2.421834 20.3507385 -14.3629065
1568 1 -2.0614433 22.3229942 -12.4180403
1962 1 -0.0949783 22.2764931 -14.529151
1965 1 -0.1015873 20.4255486 -12.3911629
1601 1 -0.134016 24.4057541 -16.3142109
1603 1 1.9726086 24.4349633 -14.3543358
2005 1 3.7522068 24.6446266 -12.1465092
1968 1 1.995287 22.4102898 -12.3138065
1963 1 1.9368324 20.3678322 -14.3968287
2362 1 4.1058655 22.425911 -14.2648773
2363 1 6.0716801 20.5410309 -14.3101998
2365 1 3.9203492 20.3019142 -12.2356377
2368 1 5.9630128 22.4924431 -12.1696377
1964 1 1.8879642 22.4250145 -16.4064808
2405 1 8.0139542 24.4614754 -12.2539129
2762 1 8.0078754 22.3783493 -14.1296864
2763 1 10.0111351 20.3263054 -14.318717
2765 1 8.0065708 20.3701134 -12.0481205
2768 1 10.2837029 22.2979927 -12.1488752
2803 1 14.3152657 24.1203804 -14.2317581
3162 1 12.3095589 22.2776375 -14.1994724
3163 1 14.2713337 20.3054199 -14.3307419
3165 1 12.3015232 20.2737274 -12.1819973
3168 1 14.2317238 22.4008255 -12.0793667
2801 1 12.2486992 24.2753868 -16.2829056
3161 1 12.1495762 20.4985276 -16.2200966
3203 1 18.4723015 24.3120575 -14.4067288
3562 1 16.3117104 22.4410858 -14.215744
3563 1 18.2576599 20.3885498 -14.3479605
3565 1 16.2085075 20.4010735 -12.3366871
3568 1 18.5014687 22.4140816 -12.2170372
3201 1 16.3555222 24.5059395 -16.3706188
3605 1 20.2841683 24.2850571 -12.1763287
3962 1 20.369381 22.2987671 -14.4249535
3963 1 22.3194885 20.3581619 -14.2735205
3965 1 20.5443344 20.3451119 -12.1498547
3968 1 22.4068604 22.3387413 -12.210062
3964 1 22.4425545 22.4213829 -16.4145012
12 1 -14.3055334 -14.2881565 -8.2733803
47 1 -14.5013848 -12.1877499 -10.2275677
406 1 -12.3018713 -14.1071005 -10.2869187
449 1 -12.2633362 -12.4305392 -8.1966515
409 1 -12.2290707 -16.3622475 -8.1639376
7 1 -14.3359022 -16.3067818 -10.2601586
412 1 -10.3147783 -14.4446888 -8.1779699
447 1 -10.3156757 -12.135047 -10.3480234
806 1 -8.1944494 -14.1313629 -10.3553658
849 1 -8.3467226 -12.3799296 -8.2304678
809 1 -8.149538 -16.3568134 -8.3693209
407 1 -10.2770462 -16.3477421 -10.2834101
812 1 -6.1926994 -14.346035 -8.3181286
847 1 -6.0918236 -12.3131952 -10.4017859
1206 1 -4.1464891 -14.381731 -10.2531433
1249 1 -4.2691069 -12.0990286 -8.3010368
807 1 -6.207181 -16.301981 -10.1541014
1212 1 -2.1475945 -14.2395048 -8.3335476
1247 1 -2.1595059 -12.2343331 -10.1472492
1606 1 -0.182518 -14.1676636 -10.2601586
1649 1 -0.127449 -12.1345987 -8.1575737
1609 1 -0.3442936 -16.329855 -8.252944
1647 1 1.8445626 -12.3064928 -10.2406597
1612 1 1.8646736 -14.3455248 -8.3093176
2006 1 3.8820058 -14.1964092 -10.1324005
2049 1 3.9710522 -12.3451424 -8.0887184
2012 1 6.0196285 -14.4179173 -8.1800089
2047 1 6.1245022 -12.2784443 -10.3384781
2007 1 5.9354362 -16.3781319 -10.1622191
2406 1 7.9943752 -14.441062 -10.3168583
2412 1 10.1033649 -14.4305258 -8.3222895
2447 1 10.2380562 -12.3264599 -10.4001141
2449 1 8.3147488 -12.4456272 -8.3650379
2409 1 8.0944366 -16.232338 -8.1686688
2407 1 10.0700378 -16.5444756 -10.2739048
2806 1 12.2892056 -14.149992 -10.1079254
2812 1 14.2927075 -14.3088093 -8.0719128
2847 1 14.4126339 -12.119628 -10.2606487
2849 1 12.3000946 -12.0806723 -8.349864
3206 1 16.4817696 -14.2314158 -10.0814533
3212 1 18.3354874 -14.3702288 -8.0316105
3247 1 18.3139076 -12.1677618 -10.3834305
3249 1 16.4868279 -12.1312122 -8.1273069
3209 1 16.363884 -16.3347454 -8.2211266
49 1 24.4156685 -12.3932724 -8.3107042
6 1 24.352932 -14.3296242 -10.2923021
3606 1 20.3439675 -14.3628693 -10.168746
3612 1 22.3628502 -14.2490616 -8.133996
3647 1 22.3163872 -12.2501602 -10.1714783
3649 1 20.2629547 -12.302414 -8.2746449
9 1 24.3711243 -16.2247124 -8.1990175
3609 1 20.4495774 -16.3408241 -8.1452951
3607 1 22.2654801 -16.363575 -10.0708466
52 1 -14.1447306 -10.3056412 -8.0403395
87 1 -14.2390843 -8.0706883 -10.0779848
446 1 -12.3833676 -10.1826963 -10.1324005
489 1 -12.2456732 -8.0620813 -8.1398706
452 1 -10.2087612 -10.0520821 -8.3641405
487 1 -10.1494103 -8.0079927 -10.1414967
846 1 -8.2120714 -10.1454125 -10.3039284
889 1 -8.1878414 -8.0245533 -8.3430519
852 1 -6.216033 -10.0244675 -8.2409516
887 1 -6.2132177 -8.0376883 -10.1659317
1246 1 -3.8916254 -10.2251606 -10.3401098
1289 1 -4.1393089 -8.0720348 -8.3036881
1252 1 -2.1293612 -10.0902634 -8.2428274
1287 1 -2.1107597 -8.0730543 -10.2780666
1646 1 -0.2178021 -10.0839815 -10.2814522
1689 1 0.0366955 -8.188942 -8.3399925
1652 1 2.0663853 -10.1153498 -8.2175369
1687 1 2.0621452 -8.0883913 -10.1725807
2046 1 4.1664429 -10.2246304 -10.1960354
2089 1 4.0561008 -8.1044636 -7.9683838
2052 1 5.9799404 -10.2059479 -8.239646
2087 1 6.0430431 -8.2200661 -10.3481455
2446 1 8.130373 -10.3530817 -10.3221207
2452 1 10.2066078 -10.2434349 -8.3479462
2487 1 10.3105431 -8.1389322 -10.3169403
2489 1 8.0395298 -8.3215141 -8.2324667
2846 1 12.1873493 -10.0108013 -10.4413538
2852 1 14.3540573 -10.2093735 -8.3883705
2887 1 14.3508759 -8.0818653 -10.3670731
2889 1 12.2558785 -8.3803349 -8.204361
3246 1 16.3017159 -10.2953615 -10.2635861
3252 1 18.1851311 -10.1332979 -8.2689333
3287 1 18.167305 -8.2170887 -10.4359694
3289 1 16.2045136 -8.1465607 -8.3395844
89 1 24.4179917 -7.8746452 -8.395998
46 1 24.518589 -10.0531435 -10.2406597
3646 1 20.3577156 -10.0900593 -10.2271586
3652 1 22.5164681 -10.1590376 -8.1729117
3687 1 22.4263191 -8.197876 -10.340395
3689 1 20.1361351 -8.3473349 -8.2279387
92 1 -14.2743359 -5.9917622 -8.0825586
127 1 -14.2414303 -4.1410637 -10.3914662
486 1 -12.2209129 -6.0629015 -10.1516132
529 1 -12.265131 -4.0196686 -8.1696882
129 1 -16.5787754 -4.0133457 -8.4121113
86 1 -16.4370232 -6.0124435 -10.2065582
492 1 -10.3815127 -5.95811 -8.0742779
527 1 -10.076313 -4.17027 -10.2786369
886 1 -8.2804375 -6.0634327 -10.2718659
929 1 -8.2779484 -4.0604591 -8.1496201
892 1 -6.2458506 -5.9904576 -8.134037
927 1 -6.1905375 -4.0749407 -10.2781067
1286 1 -4.1508942 -6.0086498 -10.157814
1329 1 -4.0389624 -4.0740843 -8.2324667
1292 1 -2.0546312 -5.9701024 -8.1899214
1327 1 -2.0719681 -4.0474463 -10.2992783
1686 1 0.06007 -6.0745688 -10.1583033
1729 1 -0.0209427 -4.0342712 -8.2891255
1727 1 2.1050568 -3.9378004 -10.3012352
1692 1 2.06814 -6.1424856 -8.16716
2086 1 4.2118836 -6.2087717 -10.2398853
2129 1 4.1343803 -4.1079407 -8.2872896
2092 1 6.1420841 -6.0819931 -8.2688522
2127 1 6.2355785 -4.102026 -10.2384586
2486 1 8.1430187 -6.2781983 -10.2430668
2492 1 10.1619415 -6.251154 -8.2055035
2527 1 10.1845379 -4.2537699 -10.2186737
2529 1 8.1670036 -4.0607452 -8.2534742
2886 1 12.3694821 -6.4208451 -10.2388659
2892 1 14.4863034 -6.1614542 -8.3667917
2927 1 14.296093 -4.2558909 -10.4322567
2929 1 12.2648926 -4.3276825 -8.1167421
3286 1 16.4273567 -6.0011854 -10.5642987
3292 1 18.3339386 -6.0407934 -8.2875347
3327 1 18.3122788 -3.9944592 -10.3012352
3329 1 16.2260094 -4.1390648 -8.2872086
3686 1 20.2708702 -6.2014704 -10.380167
3692 1 22.4183273 -6.1491757 -8.2977734
3727 1 22.1345406 -3.969985 -10.3279133
3729 1 20.3640366 -4.1134882 -8.3931847
132 1 -14.3632126 -2.1033773 -8.4630184
167 1 -14.4077807 0.2834015 -10.2792492
526 1 -12.1584206 -2.0599337 -10.2935677
569 1 -12.4242735 0.0843811 -8.2019959
169 1 -16.3475552 -0.0356274 -8.1803351
126 1 -16.4234333 -2.0284433 -10.3169003
532 1 -10.1963205 -2.1176939 -8.2490273
567 1 -10.1416187 -0.0748692 -10.2675018
926 1 -8.1872292 -2.01229 -10.247921
969 1 -8.1791935 -0.0683823 -8.255105
932 1 -6.1894779 -2.0383139 -8.2008133
967 1 -6.143383 0.0474644 -10.1552849
1326 1 -4.2177105 -2.1681128 -10.3257513
1369 1 -4.2820788 0.1861534 -8.1914721
1332 1 -1.959424 -1.9391918 -8.2192907
1367 1 -2.1644821 -0.0753574 -10.221611
1726 1 -0.0742168 -2.0572825 -10.2330732
1769 1 -0.0189438 0.0643101 -8.3598576
1732 1 1.9451142 -2.1965437 -8.2369948
1767 1 2.0443592 -0.0027103 -10.2256909
2126 1 4.1763954 -2.0146151 -10.0947914
2169 1 4.0629978 -0.0073586 -8.4030552
2132 1 6.113245 -2.1041517 -8.2865553
2167 1 6.0139179 0.002758 -10.1864901
2526 1 8.1443234 -1.9906712 -10.1084156
2532 1 10.3295918 -2.2069464 -8.2751751
2567 1 10.235569 -0.1214523 -10.3567124
2569 1 8.0745297 0.0984936 -8.2673836
2926 1 12.1959553 -2.1448622 -10.3218346
2932 1 13.9334184 -2.1835318 -8.1734009
2967 1 14.1064549 -0.1818638 -10.0692158
2969 1 11.988329 -0.0030766 -8.2987118
3326 1 16.2902146 -2.2011128 -10.3618927
3332 1 18.3055878 -1.8508378 -8.2433987
3367 1 18.2757721 -0.0784187 -10.3041325
3369 1 16.2041855 0.0318813 -8.4779892
3726 1 20.2871056 -1.9530202 -10.2318096
3732 1 22.3461647 -1.820734 -8.2698317
3767 1 22.4367638 -0.0144558 -10.5664606
3769 1 20.3228378 0.0416317 -8.4208412
172 1 -14.367218 2.2379952 -8.1089506
207 1 -14.2919617 4.1345444 -10.2087212
566 1 -12.2733708 1.9758302 -10.1773529
606 1 -12.2617855 5.9993974 -10.1838379
609 1 -12.4074717 4.08951 -7.7941647
572 1 -10.3776779 2.1007328 -8.2010164
607 1 -10.1998692 3.9768868 -10.2155743
966 1 -8.4240628 1.9304696 -10.2515526
1006 1 -8.1526384 6.1280937 -10.3114338
1009 1 -8.2584915 4.1417637 -8.332365
612 1 -10.3098021 5.9640312 -7.9415846
1366 1 -4.1580734 1.9575158 -10.2341347
972 1 -6.3409758 2.0806236 -8.3526783
1007 1 -6.332818 3.9029312 -10.1514912
1012 1 -6.1816053 5.9837742 -8.3384018
1409 1 -4.1739416 3.8548776 -8.092226
1406 1 -4.0296621 6.0556889 -10.2686434
1766 1 -0.0577774 2.0208645 -10.2073345
1372 1 -2.1551008 1.9702816 -8.1704645
1407 1 -2.1493893 4.0636902 -10.1173077
1412 1 -2.153183 6.0288486 -8.162632
1806 1 -0.0857201 6.0297451 -10.4078236
1809 1 -0.1595917 3.9489842 -8.3500271
2172 1 5.9498348 2.0806236 -8.2050552
1772 1 1.9721184 1.929001 -8.3009548
1807 1 1.9394836 4.0951386 -10.1748638
1812 1 1.8802968 6.1299706 -8.3062172
2166 1 3.9580402 2.1072998 -10.247921
2206 1 3.9597112 6.1281738 -10.2842665
2209 1 3.9489022 4.0833492 -8.3665476
2212 1 6.1223412 6.0530376 -8.2367497
2207 1 6.0046597 4.023428 -10.1725397
2572 1 10.2310009 2.1135826 -8.4052181
2566 1 8.1703892 1.9725666 -10.3861227
2606 1 7.9417954 6.0482655 -10.4203053
2607 1 10.1418324 4.0484753 -10.1836338
2609 1 8.0638027 4.1489849 -8.2775412
2612 1 10.1200886 6.0771446 -8.1463566
2972 1 14.1079235 2.2703419 -8.4155378
2966 1 12.3346863 1.9741974 -10.3899975
3006 1 12.1047459 6.1800613 -10.1161251
3007 1 14.1350899 4.1878586 -10.3169804
3009 1 12.1809044 4.0343189 -8.1044636
3012 1 14.1850166 6.1057816 -8.2531071
3366 1 16.3190956 2.1041603 -10.3332577
3372 1 18.3528252 1.9876194 -8.1352615
3406 1 16.322113 6.0115528 -10.2211628
3407 1 18.2631645 3.7940178 -10.280962
3409 1 16.1727333 4.0607109 -8.2538815
3412 1 18.3453179 5.9981328 -8.1397486
209 1 24.2852211 4.0731525 -8.1753588
166 1 24.3776093 2.1462555 -10.3702135
206 1 24.407753 5.983286 -10.2728853
3766 1 20.2306099 1.962206 -10.3802891
3772 1 22.3874855 1.9901466 -8.2341805
3806 1 20.3204308 5.7947083 -9.9758434
3807 1 22.4031105 4.0078869 -10.4920159
3809 1 20.4425202 3.9722366 -8.1882486
3812 1 22.4074326 6.1721096 -8.2092562
212 1 -14.4484005 6.0392914 -7.997387
247 1 -14.3800106 7.9514236 -10.1769037
252 1 -14.3518477 10.0531502 -8.268404
646 1 -12.2664356 9.8970014 -10.0816975
649 1 -12.3272638 7.8985158 -8.0334053