LAMMPS (17 Nov 2016)
# Affiliation: Dept. Materials Science and Engineering
# University of Arizona
# Abduljabar Alsayoud


# Units energy:eV time:ps distance:angstrom flux:energy*velocity
#---------Sim variables---------------
variable fileprefix string  nptAl101010
variable temp_s equal '250.0'
variable press_s equal '1.0'

#-----------Setup----------------------
units metal            #Energy = eV , Distance= Angstroms
dimension 3
boundary p p p         #Periodic boundary conditions
atom_style atomic

# Read config files

read_data data.${fileprefix}
read_data data.nptAl101010
  orthogonal box = (-16.3567 -16.3567 -16.3567) to (24.4346 24.4346 24.4346)
  1 by 1 by 1 MPI processor grid
  reading atoms ...
  4000 atoms

pair_style eam/alloy
pair_coeff * *  AlCu.eam.alloy Al
Reading potential file AlCu.eam.alloy with DATE: 2008-10-01
neighbor 2.0 bin
neigh_modify delay 10 check yes


#--------- NVT-------
reset_timestep 0
timestep 0.001

thermo 1000
thermo_style custom step pe ke etotal enthalpy temp vol press
velocity all create ${temp_s} 1518772
velocity all create 250 1518772
fix 1 all nvt temp ${temp_s} ${temp_s} 0.5
fix 1 all nvt temp 250 ${temp_s} 0.5
fix 1 all nvt temp 250 250 0.5
##iso ${press_s} ${press_s} 5
dump 2 all atom 2000 dump.nvt${fileprefix}
dump 2 all atom 2000 dump.nvtnptAl101010
run 60000
Neighbor list info ...
  1 neighbor list requests
  update every 1 steps, delay 10 steps, check yes
  max neighbors/atom: 2000, page size: 100000
  master list distance cutoff = 8.6825
  ghost atom cutoff = 8.6825
  binsize = 4.34125 -> bins = 10 10 10
Memory usage per processor = 4.0652 Mbytes
Step PotEng KinEng TotEng Enthalpy Temp Volume Press 
       0    -13135.15    129.22783   -13005.922   -12990.714          250    67873.636    358.99153 
    1000   -13139.521    128.47797   -13011.043   -13017.112    248.54934    67873.636   -143.26005 
    2000    -13139.44    129.03178   -13010.409   -13013.376    249.62074    67873.636   -70.056938 
    3000   -13134.348    126.83052   -13007.517   -12992.034    245.36224    67873.636    365.49892 
    4000   -13135.393    127.13251   -13008.261   -12995.531    245.94646    67873.636    300.48936 
    5000   -13138.475    126.95824   -13011.517   -13014.401    245.60933    67873.636    -68.09193 
    6000   -13136.197    130.17684    -13006.02   -12995.627    251.83593    67873.636    245.33706 
    7000   -13139.349    131.35089   -13007.998   -13011.229    254.10721    67873.636   -76.285995 
    8000   -13139.522    130.57928   -13008.943     -13012.5    252.61448    67873.636   -83.963656 
    9000   -13139.418    131.22904   -13008.189   -13010.662    253.87147    67873.636   -58.378607 
   10000   -13135.769    130.38497   -13005.384    -12992.72    252.23857    67873.636    298.93457 
   11000   -13138.674    127.85614   -13010.818   -13012.654    247.34637    67873.636   -43.339852 
   12000   -13137.284    128.54062   -13008.743   -13002.277    248.67055    67873.636    152.63445 
   13000   -13134.118    131.70122   -13002.417   -12981.199    254.78493    67873.636    500.86886 
   14000   -13133.539    129.60809   -13003.931   -12981.803    250.73563    67873.636    522.34866 
   15000   -13138.573    128.56281    -13010.01   -13010.471    248.71347    67873.636   -10.868708 
   16000   -13138.941    129.44044     -13009.5   -13011.933     250.4113    67873.636   -57.425213 
   17000   -13135.676    130.31345   -13005.363   -12993.065     252.1002    67873.636    290.30789 
   18000    -13139.13    130.20844   -13008.922   -13012.817    251.89706    67873.636   -91.952993 
   19000   -13140.626    131.94927   -13008.677   -13017.349     255.2648    67873.636     -204.703 
   20000   -13137.653    130.97041   -13006.682    -13002.83    253.37114    67873.636    90.937852 
   21000   -13137.616     128.9585   -13008.657   -13005.475    249.47897    67873.636    75.118243 
   22000   -13137.933     126.8366   -13011.097    -13010.01      245.374    67873.636    25.657544 
   23000   -13137.969    132.53641   -13005.432   -13000.263    256.40066    67873.636    122.01142 
   24000   -13136.938    127.69381   -13009.245   -13003.399    247.03233    67873.636    137.99123 
   25000   -13138.967    128.87838   -13010.088   -13012.602    249.32396    67873.636   -59.333106 
   26000   -13135.439    130.60226   -13004.836   -12990.434    252.65893    67873.636    339.95847 
   27000   -13139.167    129.27377   -13009.893   -13012.051    250.08887    67873.636   -50.945659 
   28000   -13137.362    128.58911   -13008.773   -13003.904    248.76435    67873.636    114.92605 
   29000    -13133.44    131.33417   -13002.106   -12977.409    254.07485    67873.636    582.97303 
   30000   -13138.335    131.72223   -13006.612   -13004.667    254.82559    67873.636    45.933266 
   31000   -13137.471    127.37762   -13010.094   -13008.734    246.42065    67873.636    32.101173 
   32000   -13137.257    128.66951   -13008.587   -13001.994    248.91989    67873.636    155.63702 
   33000    -13135.45    129.73728   -13005.712   -12991.377    250.98557    67873.636    338.39237 
   34000   -13138.706    128.44092   -13010.265   -13010.647    248.47767    67873.636   -9.0151044 
   35000   -13137.441    129.29541   -13008.146   -13001.865    250.13074    67873.636    148.24969 
   36000   -13134.183    131.14042   -13003.043   -12981.506    253.70003    67873.636    508.38929 
   37000   -13137.402    129.29283   -13008.109   -13003.085    250.12575    67873.636    118.57474 
   38000   -13137.348    127.48684   -13009.861   -13007.402    246.63193    67873.636    58.044376 
   39000   -13136.222    130.82906   -13005.393   -12994.907     253.0977    67873.636    247.51403 
   40000   -13138.422    129.38322   -13009.039   -13009.264     250.3006    67873.636    -5.319066 
   41000   -13139.701    130.01388   -13009.687   -13016.205    251.52067    67873.636   -153.86834 
   42000    -13137.81    132.24661   -13005.563   -13001.421    255.84003    67873.636     97.77335 
   43000   -13138.132    126.81253   -13011.319   -13010.517    245.32743    67873.636    18.930378 
   44000   -13136.599    127.73737   -13008.861   -13001.603    247.11659    67873.636    171.33413 
   45000   -13136.553     129.6853   -13006.868   -12998.031    250.88501    67873.636     208.5996 
   46000   -13140.111     131.3715   -13008.739   -13015.301    254.14708    67873.636   -154.88213 
   47000   -13138.466    129.66835   -13008.798   -13008.754    250.85222    67873.636    1.0409379 
   48000   -13135.959    129.72617   -13006.233   -12995.886    250.96408    67873.636    244.22867 
   49000   -13137.133    129.81374   -13007.319   -13001.203    251.13349    67873.636    144.36882 
   50000   -13139.386     128.8141   -13010.571   -13015.076    249.19961    67873.636   -106.32328 
   51000   -13135.417    130.06383   -13005.353   -12988.527     251.6173    67873.636    397.20367 
   52000   -13135.902     130.5948   -13005.307   -12994.579    252.64451    67873.636    253.23555 
   53000   -13139.202    128.64783   -13010.554   -13014.707    248.87796    67873.636   -98.039833 
   54000   -13138.691    130.82473   -13007.866   -13008.855    253.08931    67873.636   -23.348262 
   55000   -13136.175    129.78403   -13006.391   -12994.813    251.07601    67873.636    273.30304 
   56000   -13141.795    129.95881   -13011.836   -13024.821    251.41412    67873.636   -306.49722 
   57000   -13136.718     129.2927   -13007.425   -13000.303     250.1255    67873.636    168.12785 
   58000   -13137.892    130.00811   -13007.884   -13005.235    251.50951    67873.636    62.527921 
   59000   -13138.049    128.47016   -13009.579   -13009.194    248.53423    67873.636    9.0926237 
   60000   -13139.787    126.31291   -13013.474   -13019.975     244.3609    67873.636   -153.44396 
Loop time of 850.035 on 1 procs for 60000 steps with 4000 atoms

Performance: 6.099 ns/day, 3.935 hours/ns, 70.585 timesteps/s
99.4% CPU use with 1 MPI tasks x no OpenMP threads

MPI task timing breakdown:
Section |  min time  |  avg time  |  max time  |%varavg| %total
---------------------------------------------------------------
Pair    | 840.22     | 840.22     | 840.22     |   0.0 | 98.84
Neigh   | 0          | 0          | 0          |   0.0 |  0.00
Comm    | 2.9506     | 2.9506     | 2.9506     |   0.0 |  0.35
Output  | 0.10212    | 0.10212    | 0.10212    |   0.0 |  0.01
Modify  | 5.0568     | 5.0568     | 5.0568     |   0.0 |  0.59
Other   |            | 1.71       |            |       |  0.20

Nlocal:    4000 ave 4000 max 4000 min
Histogram: 1 0 0 0 0 0 0 0 0 0
Nghost:    8195 ave 8195 max 8195 min
Histogram: 1 0 0 0 0 0 0 0 0 0
Neighs:    320993 ave 320993 max 320993 min
Histogram: 1 0 0 0 0 0 0 0 0 0

Total # of neighbors = 320993
Ave neighs/atom = 80.2482
Neighbor list builds = 0
Dangerous builds = 0
unfix 1
undump 2

######################################
# SIMULATION DONE
print "All done"
All done
Total wall time: 0:14:10
